# Force        
# CofR         : (0.0000000e+00 0.0000000e+00 0.0000000e+00)
#
# Time         	total_x total_y total_z	pressure_x pressure_y pressure_z	viscous_x viscous_y viscous_z
1               -9.7855767e-02 -4.1075720e-02 6.1891366e-02 -9.7947566e-02 -3.7524195e-02 5.8107556e-02 9.1798520e-05 -3.5515254e-03 3.7838098e-03
2               -2.9843093e+01 -8.9786976e+00 1.6112847e+01 -2.9843762e+01 -8.9755936e+00 1.6109513e+01 6.6970270e-04 -3.1039784e-03 3.3333611e-03
3               -2.7393403e+01 -7.1131261e+00 1.5219281e+01 -2.7394597e+01 -7.1104229e+00 1.5216347e+01 1.1943723e-03 -2.7031733e-03 2.9340590e-03
4               -1.8863295e+01 -3.6313966e+00 1.0997812e+01 -1.8864805e+01 -3.6290161e+00 1.0995153e+01 1.5103290e-03 -2.3805044e-03 2.6587700e-03
5               -1.4243772e+01 -1.9237815e+00 8.6750850e+00 -1.4245437e+01 -1.9216858e+00 8.6725912e+00 1.6648472e-03 -2.0956550e-03 2.4937495e-03
6               -1.3322244e+01 -1.7019018e+00 8.2308450e+00 -1.3323946e+01 -1.7000707e+00 8.2284060e+00 1.7023855e-03 -1.8310870e-03 2.4389964e-03
7               -1.3788803e+01 -2.0227469e+00 8.5127545e+00 -1.3790491e+01 -2.0211430e+00 8.5102811e+00 1.6880896e-03 -1.6039539e-03 2.4734096e-03
8               -1.4250676e+01 -2.3323675e+00 8.8164828e+00 -1.4252341e+01 -2.3309539e+00 8.8139276e+00 1.6649461e-03 -1.4135454e-03 2.5551938e-03
9               -1.4384135e+01 -2.5138088e+00 8.9548504e+00 -1.4385785e+01 -2.5125615e+00 8.9521931e+00 1.6501294e-03 -1.2472620e-03 2.6572902e-03
10              -1.4274222e+01 -2.6000912e+00 8.9584265e+00 -1.4275867e+01 -2.5989878e+00 8.9556563e+00 1.6447060e-03 -1.1033961e-03 2.7701820e-03
11              -1.4103887e+01 -2.6601074e+00 8.9115907e+00 -1.4105533e+01 -2.6591213e+00 8.9087025e+00 1.6460148e-03 -9.8608586e-04 2.8881687e-03
12              -1.3955027e+01 -2.7133160e+00 8.8596210e+00 -1.3956684e+01 -2.7124219e+00 8.8566199e+00 1.6576986e-03 -8.9408163e-04 3.0011112e-03
13              -1.3829780e+01 -2.7514858e+00 8.8080309e+00 -1.3831461e+01 -2.7506610e+00 8.8049239e+00 1.6812840e-03 -8.2485457e-04 3.1070119e-03
14              -1.3714226e+01 -2.7688636e+00 8.7533297e+00 -1.3715940e+01 -2.7680858e+00 8.7501264e+00 1.7137270e-03 -7.7775234e-04 3.2033206e-03
15              -1.3599599e+01 -2.7658696e+00 8.6947790e+00 -1.3601352e+01 -2.7651184e+00 8.6914898e+00 1.7523530e-03 -7.5113179e-04 3.2892229e-03
16              -1.3481598e+01 -2.7459452e+00 8.6316754e+00 -1.3483393e+01 -2.7452011e+00 8.6283100e+00 1.7949268e-03 -7.4416860e-04 3.3653619e-03
17              -1.3359112e+01 -2.7145086e+00 8.5622259e+00 -1.3360951e+01 -2.7137542e+00 8.5587941e+00 1.8391451e-03 -7.5439962e-04 3.4317784e-03
18              -1.3228984e+01 -2.6747925e+00 8.4831509e+00 -1.3230868e+01 -2.6740127e+00 8.4796623e+00 1.8834504e-03 -7.7982446e-04 3.4885259e-03
19              -1.3090383e+01 -2.6307294e+00 8.3927500e+00 -1.3092310e+01 -2.6299112e+00 8.3892137e+00 1.9267137e-03 -8.1827058e-04 3.5362598e-03
20              -1.2947270e+01 -2.5886284e+00 8.2927439e+00 -1.2949239e+01 -2.5877605e+00 8.2891681e+00 1.9686933e-03 -8.6793348e-04 3.5757334e-03
21              -1.2803640e+01 -2.5537279e+00 8.1862452e+00 -1.2805647e+01 -2.5528026e+00 8.1826391e+00 2.0069815e-03 -9.2530405e-04 3.6061225e-03
22              -1.2671059e+01 -2.5305109e+00 8.0829341e+00 -1.2673105e+01 -2.5295209e+00 8.0793036e+00 2.0460888e-03 -9.8997392e-04 3.6304814e-03
23              -1.2539441e+01 -2.5153761e+00 7.9776051e+00 -1.2541522e+01 -2.5143182e+00 7.9739596e+00 2.0803025e-03 -1.0578833e-03 3.6455621e-03
24              -1.2414011e+01 -2.5055329e+00 7.8773381e+00 -1.2416124e+01 -2.5044046e+00 7.8736827e+00 2.1135992e-03 -1.1283041e-03 3.6554273e-03
25              -1.2285708e+01 -2.4955266e+00 7.7768863e+00 -1.2287850e+01 -2.4943279e+00 7.7732282e+00 2.1424591e-03 -1.1987317e-03 3.6580752e-03
26              -1.2163870e+01 -2.4854496e+00 7.6852524e+00 -1.2166041e+01 -2.4841800e+00 7.6815951e+00 2.1710727e-03 -1.2696359e-03 3.6572923e-03
27              -1.2038949e+01 -2.4735559e+00 7.5929278e+00 -1.2041145e+01 -2.4722182e+00 7.5892765e+00 2.1955372e-03 -1.3377101e-03 3.6512952e-03
28              -1.1922384e+01 -2.4625098e+00 7.5089933e+00 -1.1924604e+01 -2.4611055e+00 7.5053502e+00 2.2202127e-03 -1.4042641e-03 3.6431434e-03
29              -1.1807416e+01 -2.4507782e+00 7.4267660e+00 -1.1809657e+01 -2.4493117e+00 7.4231346e+00 2.2409971e-03 -1.4665438e-03 3.6313907e-03
30              -1.1704442e+01 -2.4401815e+00 7.3548324e+00 -1.1706704e+01 -2.4386547e+00 7.3512129e+00 2.2623168e-03 -1.5268142e-03 3.6195491e-03
31              -1.1604464e+01 -2.4292074e+00 7.2850571e+00 -1.1606744e+01 -2.4276245e+00 7.2814517e+00 2.2803897e-03 -1.5828812e-03 3.6054179e-03
32              -1.1513074e+01 -2.4188625e+00 7.2220448e+00 -1.1515372e+01 -2.4172274e+00 7.2184534e+00 2.2985112e-03 -1.6350560e-03 3.5914416e-03
33              -1.1425829e+01 -2.4085583e+00 7.1612137e+00 -1.1428142e+01 -2.4068750e+00 7.1576381e+00 2.3130653e-03 -1.6832652e-03 3.5755471e-03
34              -1.1354111e+01 -2.4002163e+00 7.1130691e+00 -1.1356440e+01 -2.3984879e+00 7.1095073e+00 2.3289607e-03 -1.7283028e-03 3.5618195e-03
35              -1.1280917e+01 -2.3908779e+00 7.0614319e+00 -1.1283257e+01 -2.3891090e+00 7.0578862e+00 2.3404227e-03 -1.7688971e-03 3.5457014e-03
36              -1.1226184e+01 -2.3840985e+00 7.0246146e+00 -1.1228538e+01 -2.3822919e+00 7.0210829e+00 2.3541910e-03 -1.8066495e-03 3.5317583e-03
37              -1.1167617e+01 -2.3759091e+00 6.9818679e+00 -1.1169980e+01 -2.3740691e+00 6.9783524e+00 2.3630331e-03 -1.8399945e-03 3.5155305e-03
38              -1.1128908e+01 -2.3705613e+00 6.9551891e+00 -1.1131282e+01 -2.3686901e+00 6.9516866e+00 2.3744569e-03 -1.8711694e-03 3.5024483e-03
39              -1.1084182e+01 -2.3634031e+00 6.9205583e+00 -1.1086562e+01 -2.3615053e+00 6.9170719e+00 2.3802987e-03 -1.8977898e-03 3.4864062e-03
40              -1.1060102e+01 -2.3592371e+00 6.9029121e+00 -1.1062492e+01 -2.3573141e+00 6.8994374e+00 2.3896643e-03 -1.9229696e-03 3.4747556e-03
41              -1.1028133e+01 -2.3529650e+00 6.8757892e+00 -1.1030526e+01 -2.3510217e+00 6.8723299e+00 2.3926511e-03 -1.9432547e-03 3.4592369e-03
42              -1.1016431e+01 -2.3497386e+00 6.8656464e+00 -1.1018831e+01 -2.3477754e+00 6.8621974e+00 2.4002805e-03 -1.9632016e-03 3.4489191e-03
43              -1.0996405e+01 -2.3444646e+00 6.8459586e+00 -1.0998807e+01 -2.3424859e+00 6.8425235e+00 2.4023318e-03 -1.9787020e-03 3.4350579e-03
44              -1.0993222e+01 -2.3415670e+00 6.8402667e+00 -1.0995629e+01 -2.3395740e+00 6.8368419e+00 2.4075447e-03 -1.9929911e-03 3.4248550e-03
45              -1.0982635e+01 -2.3366099e+00 6.8259308e+00 -1.0985042e+01 -2.3346069e+00 6.8225194e+00 2.4073512e-03 -2.0030465e-03 3.4114458e-03
46              -1.0990373e+01 -2.3344744e+00 6.8269168e+00 -1.0992785e+01 -2.3324610e+00 6.8235138e+00 2.4117409e-03 -2.0134017e-03 3.4029529e-03
47              -1.0989958e+01 -2.3302256e+00 6.8193413e+00 -1.0992370e+01 -2.3282054e+00 6.8159500e+00 2.4112866e-03 -2.0201831e-03 3.3913207e-03
48              -1.1001905e+01 -2.3277517e+00 6.8221640e+00 -1.1004319e+01 -2.3257256e+00 6.8187814e+00 2.4139910e-03 -2.0260925e-03 3.3826730e-03
49              -1.1008070e+01 -2.3239379e+00 6.8181017e+00 -1.1010482e+01 -2.3219092e+00 6.8147303e+00 2.4119513e-03 -2.0286942e-03 3.3714166e-03
50              -1.1030028e+01 -2.3226598e+00 6.8274480e+00 -1.1032443e+01 -2.3206275e+00 6.8240841e+00 2.4146948e-03 -2.0322563e-03 3.3639525e-03
51              -1.1044659e+01 -2.3197102e+00 6.8288697e+00 -1.1047072e+01 -2.3176770e+00 6.8255146e+00 2.4129680e-03 -2.0331667e-03 3.3550348e-03
52              -1.1068396e+01 -2.3183869e+00 6.8384228e+00 -1.1070811e+01 -2.3163531e+00 6.8350742e+00 2.4149455e-03 -2.0338037e-03 3.3486132e-03
53              -1.1084322e+01 -2.3154202e+00 6.8397278e+00 -1.1086735e+01 -2.3133884e+00 6.8363887e+00 2.4124584e-03 -2.0317715e-03 3.3390359e-03
54              -1.1116632e+01 -2.3152973e+00 6.8551109e+00 -1.1119047e+01 -2.3132659e+00 6.8517768e+00 2.4146968e-03 -2.0314669e-03 3.3341545e-03
55              -1.1140356e+01 -2.3136027e+00 6.8621521e+00 -1.1142769e+01 -2.3115738e+00 6.8588260e+00 2.4129220e-03 -2.0288984e-03 3.3261083e-03
56              -1.1171619e+01 -2.3131963e+00 6.8758972e+00 -1.1174034e+01 -2.3111694e+00 6.8725762e+00 2.4150205e-03 -2.0268232e-03 3.3210460e-03
57              -1.1196641e+01 -2.3117094e+00 6.8833242e+00 -1.1199054e+01 -2.3096866e+00 6.8800109e+00 2.4131531e-03 -2.0228456e-03 3.3133315e-03
58              -1.1232889e+01 -2.3122846e+00 6.9007424e+00 -1.1235305e+01 -2.3102637e+00 6.8974329e+00 2.4160756e-03 -2.0208770e-03 3.3095374e-03
59              -1.1260043e+01 -2.3115360e+00 6.9096061e+00 -1.1262458e+01 -2.3095188e+00 6.9063034e+00 2.4150683e-03 -2.0172556e-03 3.3027023e-03
60              -1.1293184e+01 -2.3120911e+00 6.9239871e+00 -1.1295602e+01 -2.3100766e+00 6.9206886e+00 2.4181371e-03 -2.0145611e-03 3.2985230e-03
61              -1.1319950e+01 -2.3114775e+00 6.9323632e+00 -1.1322368e+01 -2.3094670e+00 6.9290713e+00 2.4173072e-03 -2.0104592e-03 3.2918922e-03
62              -1.1356386e+01 -2.3126651e+00 6.9496381e+00 -1.1358807e+01 -2.3106564e+00 6.9463490e+00 2.4213887e-03 -2.0086317e-03 3.2891012e-03
63              -1.1382396e+01 -2.3121751e+00 6.9576905e+00 -1.1384818e+01 -2.3101695e+00 6.9544075e+00 2.4216392e-03 -2.0056563e-03 3.2830372e-03
64              -1.1413583e+01 -2.3129835e+00 6.9707764e+00 -1.1416009e+01 -2.3109796e+00 6.9674967e+00 2.4258864e-03 -2.0038539e-03 3.2796837e-03
65              -1.1438018e+01 -2.3129360e+00 6.9774442e+00 -1.1440444e+01 -2.3109350e+00 6.9741707e+00 2.4262851e-03 -2.0010684e-03 3.2734914e-03
66              -1.1471443e+01 -2.3146953e+00 6.9924433e+00 -1.1473875e+01 -2.3126946e+00 6.9891724e+00 2.4316694e-03 -2.0006688e-03 3.2709591e-03
67              -1.1494311e+01 -2.3147621e+00 6.9982293e+00 -1.1496744e+01 -2.3127629e+00 6.9949641e+00 2.4333504e-03 -1.9992495e-03 3.2651545e-03
68              -1.1521541e+01 -2.3158332e+00 7.0084322e+00 -1.1523980e+01 -2.3138340e+00 7.0051703e+00 2.4390551e-03 -1.9992509e-03 3.2619103e-03
69              -1.1541600e+01 -2.3159498e+00 7.0117630e+00 -1.1544041e+01 -2.3139515e+00 7.0085070e+00 2.4410219e-03 -1.9982497e-03 3.2559760e-03
70              -1.1570539e+01 -2.3178165e+00 7.0234839e+00 -1.1572987e+01 -2.3158168e+00 7.0202302e+00 2.4477316e-03 -1.9996918e-03 3.2537165e-03
71              -1.1588433e+01 -2.3180881e+00 7.0252661e+00 -1.1590884e+01 -2.3160878e+00 7.0220182e+00 2.4504197e-03 -2.0002298e-03 3.2479546e-03
72              -1.1611204e+01 -2.3192087e+00 7.0321448e+00 -1.1613661e+01 -2.3172063e+00 7.0288998e+00 2.4570114e-03 -2.0023393e-03 3.2449687e-03
73              -1.1626060e+01 -2.3194235e+00 7.0314966e+00 -1.1628521e+01 -2.3174203e+00 7.0282576e+00 2.4601950e-03 -2.0031721e-03 3.2389768e-03
74              -1.1650285e+01 -2.3215620e+00 7.0393870e+00 -1.1652753e+01 -2.3195555e+00 7.0361505e+00 2.4674966e-03 -2.0064925e-03 3.2365182e-03
75              -1.1663677e+01 -2.3220474e+00 7.0377061e+00 -1.1666148e+01 -2.3200384e+00 7.0344750e+00 2.4710705e-03 -2.0089474e-03 3.2311182e-03
76              -1.1681783e+01 -2.3236242e+00 7.0409870e+00 -1.1684262e+01 -2.3216117e+00 7.0377589e+00 2.4786621e-03 -2.0125327e-03 3.2280232e-03
77              -1.1690975e+01 -2.3237284e+00 7.0361070e+00 -1.1693457e+01 -2.3217135e+00 7.0328849e+00 2.4822427e-03 -2.0149357e-03 3.2221203e-03
78              -1.1710396e+01 -2.3257524e+00 7.0408069e+00 -1.1712886e+01 -2.3237327e+00 7.0375870e+00 2.4907301e-03 -2.0196777e-03 3.2199253e-03
79              -1.1717710e+01 -2.3256742e+00 7.0347265e+00 -1.1720205e+01 -2.3236509e+00 7.0315120e+00 2.4949825e-03 -2.0232317e-03 3.2144477e-03
80              -1.1731327e+01 -2.3268124e+00 7.0350603e+00 -1.1733830e+01 -2.3247845e+00 7.0318486e+00 2.5030965e-03 -2.0279150e-03 3.2117837e-03
81              -1.1734993e+01 -2.3263269e+00 7.0262840e+00 -1.1737500e+01 -2.3242958e+00 7.0230782e+00 2.5069580e-03 -2.0311348e-03 3.2058695e-03
82              -1.1749949e+01 -2.3277650e+00 7.0285317e+00 -1.1752464e+01 -2.3257282e+00 7.0253281e+00 2.5155025e-03 -2.0367968e-03 3.2036463e-03
83              -1.1752514e+01 -2.3269236e+00 7.0196345e+00 -1.1755034e+01 -2.3248824e+00 7.0164361e+00 2.5197464e-03 -2.0412028e-03 3.1984003e-03
84              -1.1762427e+01 -2.3274472e+00 7.0184885e+00 -1.1764956e+01 -2.3254005e+00 7.0152925e+00 2.5280964e-03 -2.0466580e-03 3.1960124e-03
85              -1.1759367e+01 -2.3253946e+00 7.0058227e+00 -1.1761898e+01 -2.3233438e+00 7.0026328e+00 2.5315809e-03 -2.0507427e-03 3.1898932e-03
86              -1.1770542e+01 -2.3258845e+00 7.0066495e+00 -1.1773082e+01 -2.3238273e+00 7.0034612e+00 2.5400206e-03 -2.0572017e-03 3.1883044e-03
87              -1.1767403e+01 -2.3235208e+00 6.9946436e+00 -1.1769947e+01 -2.3214585e+00 6.9914609e+00 2.5438912e-03 -2.0622821e-03 3.1827195e-03
88              -1.1773686e+01 -2.3226099e+00 6.9924823e+00 -1.1776238e+01 -2.3205413e+00 6.9893018e+00 2.5520217e-03 -2.0686294e-03 3.1805081e-03
89              -1.1766708e+01 -2.3191246e+00 6.9780537e+00 -1.1769263e+01 -2.3170511e+00 6.9748793e+00 2.5552729e-03 -2.0734957e-03 3.1744839e-03
90              -1.1774930e+01 -2.3185038e+00 6.9783969e+00 -1.1777494e+01 -2.3164230e+00 6.9752238e+00 2.5638206e-03 -2.0807624e-03 3.1730957e-03
91              -1.1767273e+01 -2.3145740e+00 6.9647361e+00 -1.1769840e+01 -2.3124875e+00 6.9615685e+00 2.5675547e-03 -2.0864939e-03 3.1675383e-03
92              -1.1770129e+01 -2.3122616e+00 6.9624249e+00 -1.1772705e+01 -2.3101683e+00 6.9592594e+00 2.5759189e-03 -2.0932575e-03 3.1655086e-03
93              -1.1758734e+01 -2.3069518e+00 6.9469779e+00 -1.1761313e+01 -2.3048534e+00 6.9438184e+00 2.5792243e-03 -2.0983998e-03 3.1594880e-03
94              -1.1763875e+01 -2.3046231e+00 6.9478276e+00 -1.1766463e+01 -2.3025171e+00 6.9446692e+00 2.5881633e-03 -2.1059934e-03 3.1583834e-03
95              -1.1752834e+01 -2.2995024e+00 6.9337485e+00 -1.1755426e+01 -2.2973905e+00 6.9305956e+00 2.5921932e-03 -2.1118607e-03 3.1529174e-03
96              -1.1753291e+01 -2.2963510e+00 6.9322304e+00 -1.1755892e+01 -2.2942323e+00 6.9290791e+00 2.6011897e-03 -2.1187100e-03 3.1512904e-03
97              -1.1739465e+01 -2.2904960e+00 6.9172528e+00 -1.1742070e+01 -2.2883723e+00 6.9141075e+00 2.6049884e-03 -2.1236401e-03 3.1452687e-03
98              -1.1743160e+01 -2.2877815e+00 6.9195454e+00 -1.1745774e+01 -2.2856505e+00 6.9164010e+00 2.6144309e-03 -2.1310108e-03 3.1444111e-03
99              -1.1730567e+01 -2.2819499e+00 6.9068469e+00 -1.1733186e+01 -2.2798135e+00 6.9037081e+00 2.6190240e-03 -2.1364098e-03 3.1388549e-03
100             -1.1729908e+01 -2.2782228e+00 6.9070971e+00 -1.1732536e+01 -2.2760801e+00 6.9039602e+00 2.6284361e-03 -2.1427012e-03 3.1369269e-03
101             -1.1715382e+01 -2.2717962e+00 6.8944727e+00 -1.1718014e+01 -2.2696493e+00 6.8913421e+00 2.6325689e-03 -2.1468885e-03 3.1306028e-03
102             -1.1718362e+01 -2.2685498e+00 6.8993493e+00 -1.1721004e+01 -2.2663964e+00 6.8962200e+00 2.6420686e-03 -2.1533851e-03 3.1292829e-03
103             -1.1705645e+01 -2.2622747e+00 6.8897536e+00 -1.1708292e+01 -2.2601171e+00 6.8866301e+00 2.6464490e-03 -2.1575502e-03 3.1234520e-03
104             -1.1704442e+01 -2.2578842e+00 6.8926295e+00 -1.1707098e+01 -2.2557215e+00 6.8895080e+00 2.6554404e-03 -2.1626575e-03 3.1214789e-03
105             -1.1689899e+01 -2.2503365e+00 6.8834063e+00 -1.1692558e+01 -2.2481707e+00 6.8802909e+00 2.6590122e-03 -2.1657796e-03 3.1153999e-03
106             -1.1692038e+01 -2.2454675e+00 6.8911758e+00 -1.1694706e+01 -2.2432958e+00 6.8880613e+00 2.6678433e-03 -2.1717188e-03 3.1144847e-03
107             -1.1679040e+01 -2.2371702e+00 6.8855054e+00 -1.1681711e+01 -2.2349946e+00 6.8823962e+00 2.6714305e-03 -2.1756109e-03 3.1092206e-03
108             -1.1676156e+01 -2.2306557e+00 6.8907119e+00 -1.1678835e+01 -2.2284750e+00 6.8876042e+00 2.6792194e-03 -2.1806815e-03 3.1076602e-03
109             -1.1661705e+01 -2.2217548e+00 6.8848321e+00 -1.1664387e+01 -2.2195711e+00 6.8817299e+00 2.6815169e-03 -2.1837025e-03 3.1022156e-03
110             -1.1662297e+01 -2.2155724e+00 6.8939382e+00 -1.1664986e+01 -2.2133828e+00 6.8908364e+00 2.6888034e-03 -2.1895530e-03 3.1017807e-03
111             -1.1649950e+01 -2.2069772e+00 6.8908882e+00 -1.1652641e+01 -2.2047840e+00 6.8877911e+00 2.6911890e-03 -2.1932466e-03 3.0971591e-03
112             -1.1645740e+01 -2.2001102e+00 6.8964413e+00 -1.1648438e+01 -2.1979123e+00 6.8933454e+00 2.6978169e-03 -2.1978761e-03 3.0958869e-03
113             -1.1632407e+01 -2.1916762e+00 6.8928135e+00 -1.1635106e+01 -2.1894760e+00 6.8897226e+00 2.6994140e-03 -2.2001578e-03 3.0908721e-03
114             -1.1631795e+01 -2.1858999e+00 6.9013728e+00 -1.1634500e+01 -2.1836947e+00 6.8982820e+00 2.7056028e-03 -2.2051866e-03 3.0907336e-03
115             -1.1621251e+01 -2.1787058e+00 6.9002118e+00 -1.1623959e+01 -2.1764978e+00 6.8971250e+00 2.7071758e-03 -2.2080141e-03 3.0868317e-03
116             -1.1616075e+01 -2.1730823e+00 6.9043483e+00 -1.1618788e+01 -2.1708705e+00 6.9012623e+00 2.7126466e-03 -2.2118593e-03 3.0860159e-03
117             -1.1605497e+01 -2.1670986e+00 6.9021976e+00 -1.1608211e+01 -2.1648849e+00 6.8991157e+00 2.7138097e-03 -2.2137376e-03 3.0819513e-03
118             -1.1605112e+01 -2.1635891e+00 6.9089578e+00 -1.1607832e+01 -2.1613712e+00 6.9058761e+00 2.7195593e-03 -2.2178935e-03 3.0817045e-03
119             -1.1596077e+01 -2.1592203e+00 6.9064711e+00 -1.1598798e+01 -2.1570004e+00 6.9033933e+00 2.7209697e-03 -2.2199853e-03 3.0777733e-03
120             -1.1594986e+01 -2.1567200e+00 6.9110162e+00 -1.1597712e+01 -2.1544971e+00 6.9079393e+00 2.7262638e-03 -2.2229174e-03 3.0769586e-03
121             -1.1584744e+01 -2.1529718e+00 6.9060014e+00 -1.1587471e+01 -2.1507477e+00 6.9029283e+00 2.7264306e-03 -2.2240424e-03 3.0730579e-03
122             -1.1588400e+01 -2.1520539e+00 6.9129976e+00 -1.1591131e+01 -2.1498266e+00 6.9099242e+00 2.7312092e-03 -2.2273042e-03 3.0734282e-03
123             -1.1579541e+01 -2.1493580e+00 6.9073691e+00 -1.1582272e+01 -2.1471291e+00 6.9042988e+00 2.7309012e-03 -2.2288589e-03 3.0703413e-03
124             -1.1582022e+01 -2.1489873e+00 6.9121074e+00 -1.1584757e+01 -2.1467560e+00 6.9090369e+00 2.7348433e-03 -2.2313019e-03 3.0704954e-03
125             -1.1571690e+01 -2.1465234e+00 6.9040828e+00 -1.1574424e+01 -2.1442911e+00 6.9010155e+00 2.7335553e-03 -2.2322772e-03 3.0672802e-03
126             -1.1577980e+01 -2.1471593e+00 6.9114415e+00 -1.1580718e+01 -2.1449245e+00 6.9083734e+00 2.7374434e-03 -2.2348566e-03 3.0681362e-03
127             -1.1568511e+01 -2.1450252e+00 6.9033758e+00 -1.1571247e+01 -2.1427895e+00 6.9003107e+00 2.7358998e-03 -2.2357153e-03 3.0651749e-03
128             -1.1574328e+01 -2.1457869e+00 6.9100256e+00 -1.1577068e+01 -2.1435491e+00 6.9069595e+00 2.7395765e-03 -2.2377791e-03 3.0660197e-03
129             -1.1563371e+01 -2.1435127e+00 6.9001554e+00 -1.1566108e+01 -2.1412749e+00 6.8970930e+00 2.7371542e-03 -2.2378176e-03 3.0624838e-03
130             -1.1572224e+01 -2.1448588e+00 6.9088697e+00 -1.1574965e+01 -2.1426187e+00 6.9058053e+00 2.7409578e-03 -2.2401130e-03 3.0643501e-03
131             -1.1563627e+01 -2.1431025e+00 6.9011251e+00 -1.1566366e+01 -2.1408615e+00 6.8980632e+00 2.7393149e-03 -2.2410434e-03 3.0618548e-03
132             -1.1567528e+01 -2.1436610e+00 6.9058500e+00 -1.1570270e+01 -2.1414190e+00 6.9027874e+00 2.7422914e-03 -2.2419997e-03 3.0625928e-03
133             -1.1559683e+01 -2.1420140e+00 6.8986100e+00 -1.1562424e+01 -2.1397712e+00 6.8955498e+00 2.7407440e-03 -2.2428281e-03 3.0602739e-03
134             -1.1564036e+01 -2.1426795e+00 6.9036657e+00 -1.1566779e+01 -2.1404363e+00 6.9006047e+00 2.7430261e-03 -2.2431880e-03 3.0610099e-03
135             -1.1559274e+01 -2.1415331e+00 6.8991029e+00 -1.1562015e+01 -2.1392887e+00 6.8960436e+00 2.7418857e-03 -2.2443722e-03 3.0592965e-03
136             -1.1563042e+01 -2.1420156e+00 6.9037455e+00 -1.1565786e+01 -2.1397707e+00 6.9006853e+00 2.7442306e-03 -2.2448700e-03 3.0602080e-03
137             -1.1557177e+01 -2.1406353e+00 6.8985015e+00 -1.1559920e+01 -2.1383896e+00 6.8954433e+00 2.7429759e-03 -2.2457171e-03 3.0582525e-03
138             -1.1560387e+01 -2.1410123e+00 6.9028147e+00 -1.1563132e+01 -2.1387664e+00 6.8997556e+00 2.7449726e-03 -2.2459147e-03 3.0591404e-03
139             -1.1555776e+01 -2.1398221e+00 6.8986959e+00 -1.1558520e+01 -2.1375753e+00 6.8956384e+00 2.7440858e-03 -2.2467587e-03 3.0575006e-03
140             -1.1558462e+01 -2.1400279e+00 6.9024606e+00 -1.1561208e+01 -2.1377812e+00 6.8994026e+00 2.7456727e-03 -2.2466894e-03 3.0579849e-03
141             -1.1554734e+01 -2.1388738e+00 6.8990456e+00 -1.1557479e+01 -2.1366262e+00 6.8959889e+00 2.7449397e-03 -2.2475977e-03 3.0567913e-03
142             -1.1558001e+01 -2.1391522e+00 6.9035082e+00 -1.1560748e+01 -2.1369042e+00 6.9004506e+00 2.7468846e-03 -2.2480066e-03 3.0575995e-03
143             -1.1552643e+01 -2.1376993e+00 6.8989221e+00 -1.1555389e+01 -2.1354510e+00 6.8958660e+00 2.7459933e-03 -2.2483588e-03 3.0561325e-03
144             -1.1554002e+01 -2.1375949e+00 6.9016541e+00 -1.1556749e+01 -2.1353470e+00 6.8985978e+00 2.7471860e-03 -2.2479749e-03 3.0562886e-03
145             -1.1552506e+01 -2.1367333e+00 6.9002633e+00 -1.1555253e+01 -2.1344843e+00 6.8972076e+00 2.7466108e-03 -2.2490012e-03 3.0556797e-03
146             -1.1555569e+01 -2.1369350e+00 6.9046363e+00 -1.1558318e+01 -2.1346855e+00 6.9015797e+00 2.7485441e-03 -2.2494887e-03 3.0565756e-03
147             -1.1550020e+01 -2.1353746e+00 6.9000877e+00 -1.1552768e+01 -2.1331251e+00 6.8970326e+00 2.7476710e-03 -2.2495054e-03 3.0551054e-03
148             -1.1551491e+01 -2.1352407e+00 6.9029112e+00 -1.1554240e+01 -2.1329909e+00 6.8998554e+00 2.7493655e-03 -2.2497964e-03 3.0557747e-03
149             -1.1548996e+01 -2.1342279e+00 6.9010911e+00 -1.1551744e+01 -2.1319777e+00 6.8980363e+00 2.7485269e-03 -2.2502119e-03 3.0548092e-03
150             -1.1549639e+01 -2.1339671e+00 6.9031770e+00 -1.1552388e+01 -2.1317168e+00 6.9001216e+00 2.7498238e-03 -2.2503406e-03 3.0553872e-03
151             -1.1548801e+01 -2.1332274e+00 6.9029401e+00 -1.1551551e+01 -2.1309766e+00 6.8998855e+00 2.7494870e-03 -2.2507933e-03 3.0546175e-03
152             -1.1546864e+01 -2.1324461e+00 6.9025084e+00 -1.1549615e+01 -2.1301953e+00 6.8994537e+00 2.7503803e-03 -2.2507311e-03 3.0546380e-03
153             -1.1548447e+01 -2.1321301e+00 6.9044400e+00 -1.1551198e+01 -2.1298787e+00 6.9013857e+00 2.7503852e-03 -2.2513838e-03 3.0542827e-03
154             -1.1545950e+01 -2.1312433e+00 6.9035975e+00 -1.1548701e+01 -2.1289915e+00 6.9005430e+00 2.7515191e-03 -2.2517673e-03 3.0545595e-03
155             -1.1546457e+01 -2.1307919e+00 6.9049181e+00 -1.1549209e+01 -2.1285398e+00 6.9018641e+00 2.7514997e-03 -2.2520232e-03 3.0540025e-03
156             -1.1541548e+01 -2.1294566e+00 6.9018052e+00 -1.1544300e+01 -2.1272046e+00 6.8987514e+00 2.7520678e-03 -2.2519866e-03 3.0537764e-03
157             -1.1545746e+01 -2.1297166e+00 6.9064838e+00 -1.1548498e+01 -2.1274639e+00 6.9034300e+00 2.7523696e-03 -2.2527369e-03 3.0538335e-03
158             -1.1541039e+01 -2.1283887e+00 6.9034338e+00 -1.1543792e+01 -2.1261359e+00 6.9003802e+00 2.7530207e-03 -2.2527732e-03 3.0536713e-03
159             -1.1543522e+01 -2.1283993e+00 6.9066634e+00 -1.1546275e+01 -2.1261459e+00 6.9036099e+00 2.7533454e-03 -2.2533809e-03 3.0534680e-03
160             -1.1537939e+01 -2.1269036e+00 6.9027849e+00 -1.1540693e+01 -2.1246506e+00 6.8997320e+00 2.7536832e-03 -2.2529673e-03 3.0528404e-03
161             -1.1541417e+01 -2.1270824e+00 6.9066405e+00 -1.1544171e+01 -2.1248285e+00 6.9035873e+00 2.7541173e-03 -2.2539835e-03 3.0531667e-03
162             -1.1538254e+01 -2.1260298e+00 6.9049753e+00 -1.1541009e+01 -2.1237754e+00 6.9019221e+00 2.7551212e-03 -2.2544116e-03 3.0532784e-03
163             -1.1537111e+01 -2.1255098e+00 6.9051373e+00 -1.1539866e+01 -2.1232552e+00 6.9020845e+00 2.7549805e-03 -2.2546464e-03 3.0527102e-03
164             -1.1535474e+01 -2.1246916e+00 6.9046673e+00 -1.1538230e+01 -2.1224366e+00 6.9016144e+00 2.7560151e-03 -2.2550304e-03 3.0529178e-03
165             -1.1534527e+01 -2.1242217e+00 6.9050289e+00 -1.1537283e+01 -2.1219661e+00 6.9019763e+00 2.7557378e-03 -2.2555452e-03 3.0525660e-03
166             -1.1534137e+01 -2.1236370e+00 6.9058136e+00 -1.1536894e+01 -2.1213814e+00 6.9027607e+00 2.7568123e-03 -2.2556350e-03 3.0528355e-03
167             -1.1532272e+01 -2.1229603e+00 6.9051828e+00 -1.1535029e+01 -2.1207039e+00 6.9021305e+00 2.7565760e-03 -2.2564555e-03 3.0523132e-03
168             -1.1532607e+01 -2.1225363e+00 6.9067543e+00 -1.1535365e+01 -2.1202799e+00 6.9037016e+00 2.7577449e-03 -2.2564257e-03 3.0526559e-03
169             -1.1529297e+01 -2.1215928e+00 6.9046223e+00 -1.1532054e+01 -2.1193355e+00 6.9015704e+00 2.7574320e-03 -2.2572732e-03 3.0519476e-03
170             -1.1529944e+01 -2.1213023e+00 6.9065534e+00 -1.1532703e+01 -2.1190454e+00 6.9035013e+00 2.7585213e-03 -2.2569397e-03 3.0520431e-03
171             -1.1527101e+01 -2.1203711e+00 6.9046039e+00 -1.1529859e+01 -2.1181130e+00 6.9015523e+00 2.7582296e-03 -2.2580641e-03 3.0516078e-03
172             -1.1529543e+01 -2.1204233e+00 6.9085376e+00 -1.1532303e+01 -2.1181647e+00 6.9054852e+00 2.7600783e-03 -2.2585248e-03 3.0523657e-03
173             -1.1522616e+01 -2.1187413e+00 6.9031551e+00 -1.1525375e+01 -2.1164824e+00 6.9001040e+00 2.7591794e-03 -2.2588734e-03 3.0510653e-03
174             -1.1525433e+01 -2.1188709e+00 6.9075774e+00 -1.1528194e+01 -2.1166118e+00 6.9045255e+00 2.7610847e-03 -2.2591065e-03 3.0519020e-03
175             -1.1520213e+01 -2.1174691e+00 6.9036460e+00 -1.1522973e+01 -2.1152092e+00 6.9005952e+00 2.7599904e-03 -2.2599056e-03 3.0508117e-03
176             -1.1523279e+01 -2.1176772e+00 6.9085621e+00 -1.1526040e+01 -2.1154173e+00 6.9055104e+00 2.7617990e-03 -2.2599232e-03 3.0517140e-03
177             -1.1517627e+01 -2.1161642e+00 6.9041172e+00 -1.1520388e+01 -2.1139035e+00 6.9010668e+00 2.7608519e-03 -2.2607457e-03 3.0503968e-03
178             -1.1520321e+01 -2.1162779e+00 6.9086373e+00 -1.1523084e+01 -2.1140174e+00 6.9055863e+00 2.7625585e-03 -2.2605031e-03 3.0510035e-03
179             -1.1515729e+01 -2.1149136e+00 6.9050964e+00 -1.1518491e+01 -2.1126521e+00 6.9020464e+00 2.7618688e-03 -2.2615465e-03 3.0500741e-03
180             -1.1518914e+01 -2.1151007e+00 6.9102065e+00 -1.1521678e+01 -2.1128388e+00 6.9071554e+00 2.7640382e-03 -2.2619058e-03 3.0510533e-03
181             -1.1511427e+01 -2.1132312e+00 6.9042882e+00 -1.1514190e+01 -2.1109689e+00 6.9012387e+00 2.7629272e-03 -2.2623577e-03 3.0495552e-03
182             -1.1513630e+01 -2.1132731e+00 6.9084285e+00 -1.1516395e+01 -2.1110110e+00 6.9053784e+00 2.7645192e-03 -2.2620333e-03 3.0500892e-03
183             -1.1510227e+01 -2.1121341e+00 6.9060065e+00 -1.1512991e+01 -2.1098709e+00 6.9029571e+00 2.7637565e-03 -2.2632274e-03 3.0493672e-03
184             -1.1513648e+01 -2.1123836e+00 6.9113459e+00 -1.1516414e+01 -2.1101200e+00 6.9082955e+00 2.7659213e-03 -2.2635585e-03 3.0503866e-03
185             -1.1505921e+01 -2.1104789e+00 6.9052573e+00 -1.1508686e+01 -2.1082150e+00 6.9022085e+00 2.7648230e-03 -2.2638997e-03 3.0487613e-03
186             -1.1508354e+01 -2.1105473e+00 6.9096205e+00 -1.1511121e+01 -2.1082836e+00 6.9065711e+00 2.7666764e-03 -2.2637227e-03 3.0494419e-03
187             -1.1504318e+01 -2.1093206e+00 6.9068217e+00 -1.1507084e+01 -2.1070560e+00 6.9037732e+00 2.7658397e-03 -2.2646722e-03 3.0485060e-03
188             -1.1507169e+01 -2.1094604e+00 6.9116166e+00 -1.1509937e+01 -2.1071957e+00 6.9085672e+00 2.7677656e-03 -2.2647535e-03 3.0494089e-03
189             -1.1500809e+01 -2.1078251e+00 6.9067055e+00 -1.1503576e+01 -2.1055598e+00 6.9036575e+00 2.7668225e-03 -2.2653439e-03 3.0480403e-03
190             -1.1503023e+01 -2.1078882e+00 6.9108251e+00 -1.1505791e+01 -2.1056229e+00 6.9077764e+00 2.7685253e-03 -2.2652669e-03 3.0487232e-03
191             -1.1498876e+01 -2.1066388e+00 6.9078287e+00 -1.1501643e+01 -2.1043727e+00 6.9047809e+00 2.7677042e-03 -2.2660998e-03 3.0477749e-03
192             -1.1501263e+01 -2.1066749e+00 6.9120504e+00 -1.1504032e+01 -2.1044088e+00 6.9090019e+00 2.7693935e-03 -2.2660540e-03 3.0485329e-03
193             -1.1495961e+01 -2.1052145e+00 6.9079157e+00 -1.1498729e+01 -2.1029477e+00 6.9048683e+00 2.7684771e-03 -2.2667399e-03 3.0474156e-03
194             -1.1497791e+01 -2.1052219e+00 6.9114983e+00 -1.1500561e+01 -2.1029556e+00 6.9084505e+00 2.7698804e-03 -2.2663604e-03 3.0477911e-03
195             -1.1494107e+01 -2.1039972e+00 6.9084920e+00 -1.1496876e+01 -2.1017299e+00 6.9054448e+00 2.7691243e-03 -2.2673044e-03 3.0472158e-03
196             -1.1497113e+01 -2.1041327e+00 6.9133092e+00 -1.1499885e+01 -2.1018650e+00 6.9102609e+00 2.7710923e-03 -2.2677655e-03 3.0482344e-03
197             -1.1489841e+01 -2.1021865e+00 6.9075306e+00 -1.1492611e+01 -2.0999186e+00 6.9044838e+00 2.7698390e-03 -2.2678873e-03 3.0468197e-03
198             -1.1492919e+01 -2.1022947e+00 6.9122668e+00 -1.1495691e+01 -2.1000264e+00 6.9092189e+00 2.7717967e-03 -2.2682704e-03 3.0478563e-03
199             -1.1487973e+01 -2.1008661e+00 6.9084582e+00 -1.1490744e+01 -2.0985974e+00 6.9054114e+00 2.7705947e-03 -2.2687006e-03 3.0468131e-03
200             -1.1490294e+01 -2.1008559e+00 6.9124677e+00 -1.1493066e+01 -2.0985871e+00 6.9094200e+00 2.7721442e-03 -2.2687815e-03 3.0476956e-03
201             -1.1485911e+01 -2.0992989e+00 6.9094085e+00 -1.1488682e+01 -2.0970295e+00 6.9063619e+00 2.7712453e-03 -2.2694625e-03 3.0466470e-03
202             -1.1487456e+01 -2.0988044e+00 6.9131458e+00 -1.1490229e+01 -2.0965349e+00 6.9100984e+00 2.7727764e-03 -2.2695092e-03 3.0473917e-03