# Moment       
# CofR         : (0.0000000e+00 0.0000000e+00 0.0000000e+00)
#
# Time         	total_x total_y total_z	pressure_x pressure_y pressure_z	viscous_x viscous_y viscous_z
1               9.5331617e-03 -4.9414263e-02 -1.7826454e-02 8.8208477e-03 -4.7062659e-02 -1.5568535e-02 7.1231399e-04 -2.3516043e-03 -2.2579191e-03
2               2.6783274e+00 -1.3422479e+01 -2.9406438e+00 2.6776932e+00 -1.3420486e+01 -2.9386248e+00 6.3416676e-04 -1.9935682e-03 -2.0189537e-03
3               2.4370666e+00 -1.2398767e+01 -1.8293712e+00 2.4365017e+00 -1.2397088e+01 -1.8275639e+00 5.6490223e-04 -1.6787998e-03 -1.8073288e-03
4               1.6452237e+00 -8.6614691e+00 -3.0960924e-01 1.6447105e+00 -8.6600005e+00 -3.0798134e-01 5.1313751e-04 -1.4685527e-03 -1.6278991e-03
5               1.2163834e+00 -6.6757745e+00 3.5499685e-01 1.2159090e+00 -6.6744266e+00 3.5645488e-01 4.7437684e-04 -1.3478893e-03 -1.4580254e-03
6               1.1332282e+00 -6.3458191e+00 3.7545198e-01 1.1327810e+00 -6.3445084e+00 3.7674199e-01 4.4714252e-04 -1.3107449e-03 -1.2900157e-03
7               1.1815519e+00 -6.6266137e+00 1.8237063e-01 1.1811210e+00 -6.6252779e+00 1.8351081e-01 4.3096519e-04 -1.3358484e-03 -1.1401859e-03
8               1.2309986e+00 -6.8950649e+00 1.0849376e-02 1.2305770e+00 -6.8936724e+00 1.1861548e-02 4.2156911e-04 -1.3925297e-03 -1.0121725e-03
9               1.2500727e+00 -7.0030251e+00 -9.8834309e-02 1.2496576e+00 -7.0015630e+00 -9.7934056e-02 4.1515438e-04 -1.4620137e-03 -9.0025357e-04
10              1.2465101e+00 -6.9928741e+00 -1.6549025e-01 1.2460995e+00 -6.9913361e+00 -1.6468661e-01 4.1062254e-04 -1.5380090e-03 -8.0363832e-04
11              1.2366318e+00 -6.9437275e+00 -2.2032137e-01 1.2362237e+00 -6.9421106e+00 -2.1959650e-01 4.0811587e-04 -1.6168568e-03 -7.2486383e-04
12              1.2280840e+00 -6.8943118e+00 -2.6882516e-01 1.2276771e+00 -6.8926200e+00 -2.6816174e-01 4.0697594e-04 -1.6917938e-03 -6.6342439e-04
13              1.2212809e+00 -6.8481819e+00 -3.0459336e-01 1.2208738e+00 -6.8464205e+00 -3.0397556e-01 4.0707568e-04 -1.7613922e-03 -6.1780063e-04
14              1.2150357e+00 -6.8017283e+00 -3.2468707e-01 1.2146274e+00 -6.7999042e+00 -3.2409964e-01 4.0824694e-04 -1.8240780e-03 -5.8742959e-04
15              1.2085297e+00 -6.7536489e+00 -3.3047173e-01 1.2081193e+00 -6.7517695e+00 -3.2990060e-01 4.1044671e-04 -1.8794438e-03 -5.7113173e-04
16              1.2013241e+00 -6.7030550e+00 -3.2513509e-01 1.2009104e+00 -6.7011270e+00 -3.2456691e-01 4.1362926e-04 -1.9280234e-03 -5.6818463e-04
17              1.1933143e+00 -6.6486404e+00 -3.1267006e-01 1.1928966e+00 -6.6466704e+00 -3.1209322e-01 4.1764939e-04 -1.9699780e-03 -5.7683880e-04
18              1.1842590e+00 -6.5879494e+00 -2.9572193e-01 1.1838366e+00 -6.5859440e+00 -2.9512627e-01 4.2234558e-04 -2.0054498e-03 -5.9566174e-04
19              1.1741145e+00 -6.5196016e+00 -2.7713014e-01 1.1736868e+00 -6.5175667e+00 -2.7650701e-01 4.2764615e-04 -2.0349323e-03 -6.2312721e-04
20              1.1632351e+00 -6.4447865e+00 -2.6085373e-01 1.1628016e+00 -6.4427275e+00 -2.6019570e-01 4.3350498e-04 -2.0589397e-03 -6.5803008e-04
21              1.1519544e+00 -6.3658391e+00 -2.5028157e-01 1.1515148e+00 -6.3637620e+00 -2.4958372e-01 4.3961129e-04 -2.0770477e-03 -6.9784808e-04
22              1.1414113e+00 -6.2895276e+00 -2.4724781e-01 1.1409652e+00 -6.2874366e+00 -2.4650502e-01 4.4614639e-04 -2.0910442e-03 -7.4278790e-04
23              1.1307267e+00 -6.2123320e+00 -2.5049295e-01 1.1302742e+00 -6.2102329e+00 -2.4970336e-01 4.5247001e-04 -2.0991094e-03 -7.8959382e-04
24              1.1205613e+00 -6.1387263e+00 -2.5728065e-01 1.1201024e+00 -6.1366226e+00 -2.5644245e-01 4.5888096e-04 -2.1036912e-03 -8.3820615e-04
25              1.1100321e+00 -6.0650038e+00 -2.6469963e-01 1.1095672e+00 -6.0629001e+00 -2.6381306e-01 4.6496304e-04 -2.1036874e-03 -8.8656787e-04
26              1.1001929e+00 -5.9969850e+00 -2.7144930e-01 1.0997219e+00 -5.9948836e+00 -2.7051392e-01 4.7103383e-04 -2.1013711e-03 -9.3538525e-04
27              1.0899003e+00 -5.9284898e+00 -2.7731210e-01 1.0894236e+00 -5.9263940e+00 -2.7633000e-01 4.7666314e-04 -2.0957750e-03 -9.8209456e-04
28              1.0803660e+00 -5.8656012e+00 -2.8266677e-01 1.0798839e+00 -5.8635125e+00 -2.8163882e-01 4.8212428e-04 -2.0887284e-03 -1.0279492e-03
29              1.0707630e+00 -5.8039636e+00 -2.8742697e-01 1.0702759e+00 -5.8018841e+00 -2.8635624e-01 4.8707421e-04 -2.0794745e-03 -1.0707333e-03
30              1.0622129e+00 -5.7492761e+00 -2.9156571e-01 1.0617210e+00 -5.7472060e+00 -2.9045339e-01 4.9191392e-04 -2.0701114e-03 -1.1123135e-03
31              1.0537506e+00 -5.6962121e+00 -2.9509392e-01 1.0532544e+00 -5.6941527e+00 -2.9394304e-01 4.9626363e-04 -2.0593940e-03 -1.1508822e-03
32              1.0459528e+00 -5.6478941e+00 -2.9805217e-01 1.0454524e+00 -5.6458454e+00 -2.9686520e-01 5.0037106e-04 -2.0487819e-03 -1.1869778e-03
33              1.0383890e+00 -5.6014513e+00 -3.0044657e-01 1.0378850e+00 -5.5994142e+00 -2.9922642e-01 5.0398700e-04 -2.0370925e-03 -1.2201506e-03
34              1.0322164e+00 -5.5637691e+00 -3.0244398e-01 1.0317089e+00 -5.5617423e+00 -3.0119258e-01 5.0753324e-04 -2.0267390e-03 -1.2513995e-03
35              1.0257534e+00 -5.5243692e+00 -3.0370826e-01 1.0252429e+00 -5.5223541e+00 -3.0242892e-01 5.1050175e-04 -2.0150576e-03 -1.2793325e-03
36              1.0384994e+00 -5.5559701e+00 -3.4722852e-01 1.0204176e+00 -5.4931843e+00 -3.0343563e-01 1.8081853e-02 -6.2785792e-02 -4.3792885e-02
37              1.0326119e+00 -5.5186803e+00 -3.4712772e-01 1.0149384e+00 -5.4581752e+00 -3.0373485e-01 1.7673478e-02 -6.0505137e-02 -4.3392873e-02
38              1.0284063e+00 -5.4930538e+00 -3.4648600e-01 1.0110578e+00 -5.4343442e+00 -3.0348034e-01 1.7348478e-02 -5.8709661e-02 -4.3005658e-02
39              1.0235245e+00 -5.4640484e+00 -3.4464487e-01 1.0064488e+00 -5.4068058e+00 -3.0205114e-01 1.7075746e-02 -5.7242575e-02 -4.2593726e-02
40              1.0206136e+00 -5.4475271e+00 -3.4255614e-01 1.0037567e+00 -5.3914270e+00 -3.0034548e-01 1.6856911e-02 -5.6100103e-02 -4.2210668e-02
41              1.0169063e+00 -5.4254947e+00 -3.3955745e-01 1.0002350e+00 -5.3703389e+00 -2.9773219e-01 1.6671307e-02 -5.5155832e-02 -4.1825260e-02
42              1.0152796e+00 -5.4157935e+00 -3.3666355e-01 9.9875016e-01 -5.3613453e+00 -2.9514362e-01 1.6529470e-02 -5.4448229e-02 -4.1519925e-02
43              1.0128047e+00 -5.4002047e+00 -3.3313480e-01 9.9639549e-01 -5.3463521e+00 -2.9189940e-01 1.6409179e-02 -5.3852637e-02 -4.1235408e-02
44              1.0117617e+00 -5.3933737e+00 -3.2964151e-01 9.9544630e-01 -5.3399850e+00 -2.8863500e-01 1.6315383e-02 -5.3388668e-02 -4.1006519e-02
45              1.0100842e+00 -5.3820701e+00 -3.2547525e-01 9.9384808e-01 -5.3290814e+00 -2.8467021e-01 1.6236128e-02 -5.2988717e-02 -4.0805045e-02
46              1.0102227e+00 -5.3815619e+00 -3.2146752e-01 9.9404448e-01 -5.3288784e+00 -2.8079535e-01 1.6178191e-02 -5.2683590e-02 -4.0672168e-02
47              1.0094336e+00 -5.3751664e+00 -3.1692832e-01 9.9330780e-01 -5.3227699e+00 -2.7638009e-01 1.6125804e-02 -5.2396536e-02 -4.0548235e-02
48              1.0099838e+00 -5.3770232e+00 -3.1249015e-01 9.9389717e-01 -5.3248559e+00 -2.7201701e-01 1.6086667e-02 -5.2167289e-02 -4.0473145e-02
49              1.0098228e+00 -5.3741618e+00 -3.0772575e-01 9.9377308e-01 -5.3222158e+00 -2.6733052e-01 1.6049765e-02 -5.1946011e-02 -4.0395225e-02
50              1.0110543e+00 -5.3796469e+00 -3.0300996e-01 9.9503418e-01 -5.3278907e+00 -2.6266142e-01 1.6020104e-02 -5.1756156e-02 -4.0348536e-02
51              1.0115685e+00 -5.3805361e+00 -2.9805439e-01 9.9557694e-01 -5.3289571e+00 -2.5776361e-01 1.5991516e-02 -5.1578944e-02 -4.0290781e-02
52              1.0131783e+00 -5.3880766e+00 -2.9328679e-01 9.9721170e-01 -5.3366514e+00 -2.5304015e-01 1.5966627e-02 -5.1425245e-02 -4.0246645e-02
53              1.0140232e+00 -5.3908325e+00 -2.8824733e-01 9.9808644e-01 -5.3395752e+00 -2.4807251e-01 1.5936794e-02 -5.1257279e-02 -4.0174816e-02
54              1.0162541e+00 -5.4016376e+00 -2.8345265e-01 1.0003413e+00 -5.3505103e+00 -2.4332996e-01 1.5912808e-02 -5.1127316e-02 -4.0122686e-02
55              1.0176900e+00 -5.4076595e+00 -2.7846265e-01 1.0018072e+00 -5.3566783e+00 -2.3842088e-01 1.5882796e-02 -5.0981169e-02 -4.0041775e-02
56              1.0199773e+00 -5.4188112e+00 -2.7367379e-01 1.0041236e+00 -5.3679596e+00 -2.3371353e-01 1.5853671e-02 -5.0851527e-02 -3.9960260e-02
57              1.0215520e+00 -5.4256754e+00 -2.6868324e-01 1.0057307e+00 -5.3749525e+00 -2.2883243e-01 1.5821268e-02 -5.0722939e-02 -3.9850806e-02
58              1.0244377e+00 -5.4398385e+00 -2.6409662e-01 1.0086431e+00 -5.3892082e+00 -2.2433138e-01 1.5794601e-02 -5.0630355e-02 -3.9765243e-02
59              1.0262655e+00 -5.4476446e+00 -2.5942261e-01 1.0105050e+00 -5.3971320e+00 -2.1977261e-01 1.5760479e-02 -5.0512676e-02 -3.9650006e-02
60              1.0288136e+00 -5.4597358e+00 -2.5500889e-01 1.0130844e+00 -5.4093165e+00 -2.1547054e-01 1.5729221e-02 -5.0419360e-02 -3.9538345e-02
61              1.0306942e+00 -5.4677990e+00 -2.5053039e-01 1.0150001e+00 -5.4174827e+00 -2.1112524e-01 1.5694097e-02 -5.0316274e-02 -3.9405147e-02
62              1.0337132e+00 -5.4821934e+00 -2.4632057e-01 1.0180481e+00 -5.4319466e+00 -2.0702048e-01 1.5665130e-02 -5.0246812e-02 -3.9300089e-02
63              1.0356263e+00 -5.4900024e+00 -2.4210366e-01 1.0199956e+00 -5.4398464e+00 -2.0293007e-01 1.5630719e-02 -5.0155960e-02 -3.9173587e-02
64              1.0381905e+00 -5.5014460e+00 -2.3825542e-01 1.0225908e+00 -5.4513617e+00 -1.9919569e-01 1.5599750e-02 -5.0084258e-02 -3.9059731e-02
65              1.0400104e+00 -5.5085024e+00 -2.3451324e-01 1.0244441e+00 -5.4584982e+00 -1.9558202e-01 1.5566282e-02 -5.0004169e-02 -3.8931211e-02
66              1.0428187e+00 -5.5210478e+00 -2.3105392e-01 1.0272792e+00 -5.4710944e+00 -1.9222004e-01 1.5539466e-02 -4.9953371e-02 -3.8833879e-02
67              1.0445092e+00 -5.5268593e+00 -2.2760228e-01 1.0290013e+00 -5.4769801e+00 -1.8888043e-01 1.5507952e-02 -4.9879119e-02 -3.8721849e-02
68              1.0467991e+00 -5.5360248e+00 -2.2448333e-01 1.0313184e+00 -5.4862021e+00 -1.8585743e-01 1.5480722e-02 -4.9822702e-02 -3.8625895e-02
69              1.0482975e+00 -5.5405160e+00 -2.2144382e-01 1.0328466e+00 -5.4907637e+00 -1.8292555e-01 1.5450829e-02 -4.9752303e-02 -3.8518262e-02
70              1.0508427e+00 -5.5507198e+00 -2.1873658e-01 1.0354136e+00 -5.5010057e+00 -1.8028682e-01 1.5429045e-02 -4.9714158e-02 -3.8449759e-02
71              1.0522025e+00 -5.5539705e+00 -2.1597063e-01 1.0368000e+00 -5.5043224e+00 -1.7760120e-01 1.5402559e-02 -4.9648080e-02 -3.8369437e-02
72              1.0540935e+00 -5.5602307e+00 -2.1366653e-01 1.0387129e+00 -5.5106316e+00 -1.7536067e-01 1.5380575e-02 -4.9599072e-02 -3.8305862e-02
73              1.0551529e+00 -5.5615118e+00 -2.1143747e-01 1.0397969e+00 -5.5119787e+00 -1.7320600e-01 1.5356029e-02 -4.9533147e-02 -3.8231471e-02
74              1.0572504e+00 -5.5686032e+00 -2.0944762e-01 1.0419115e+00 -5.5191090e+00 -1.7125309e-01 1.5338845e-02 -4.9494199e-02 -3.8194522e-02
75              1.0581909e+00 -5.5688915e+00 -2.0737429e-01 1.0428728e+00 -5.5194583e+00 -1.6922859e-01 1.5318044e-02 -4.9433262e-02 -3.8145698e-02
76              1.0596551e+00 -5.5723343e+00 -2.0556921e-01 1.0443544e+00 -5.5229518e+00 -1.6745667e-01 1.5300664e-02 -4.9382479e-02 -3.8112536e-02
77              1.0602345e+00 -5.5705584e+00 -2.0365643e-01 1.0449522e+00 -5.5212348e+00 -1.6558602e-01 1.5282254e-02 -4.9323630e-02 -3.8070406e-02
78              1.0619023e+00 -5.5751012e+00 -2.0197764e-01 1.0466312e+00 -5.5258099e+00 -1.6391255e-01 1.5271167e-02 -4.9291344e-02 -3.8065096e-02
79              1.0622701e+00 -5.5718795e+00 -2.0013200e-01 1.0470147e+00 -5.5226495e+00 -1.6208511e-01 1.5255417e-02 -4.9229921e-02 -3.8046888e-02
80              1.0633494e+00 -5.5733233e+00 -1.9852037e-01 1.0481045e+00 -5.5241341e+00 -1.6047393e-01 1.5244908e-02 -4.9189207e-02 -3.8046438e-02
81              1.0633851e+00 -5.5684647e+00 -1.9670981e-01 1.0481546e+00 -5.5193416e+00 -1.5867737e-01 1.5230559e-02 -4.9123115e-02 -3.8032432e-02
82              1.0646552e+00 -5.5710431e+00 -1.9512460e-01 1.0494310e+00 -5.5219564e+00 -1.5706628e-01 1.5224232e-02 -4.9086697e-02 -3.8058326e-02
83              1.0646969e+00 -5.5661840e+00 -1.9345900e-01 1.0494823e+00 -5.5171548e+00 -1.5538648e-01 1.5214609e-02 -4.9029186e-02 -3.8072517e-02
84              1.0654425e+00 -5.5662799e+00 -1.9196234e-01 1.0502333e+00 -5.5172928e+00 -1.5386019e-01 1.5209182e-02 -4.8987044e-02 -3.8102152e-02
85              1.0649748e+00 -5.5587801e+00 -1.9017544e-01 1.0497748e+00 -5.5098602e+00 -1.5205754e-01 1.5199995e-02 -4.8919892e-02 -3.8117902e-02
86              1.0659331e+00 -5.5601566e+00 -1.8872242e-01 1.0507337e+00 -5.5112678e+00 -1.5054956e-01 1.5199455e-02 -4.8888800e-02 -3.8172859e-02
87              1.0654716e+00 -5.5527544e+00 -1.8686110e-01 1.0502781e+00 -5.5039311e+00 -1.4864784e-01 1.5193517e-02 -4.8823339e-02 -3.8213265e-02
88              1.0659891e+00 -5.5522269e+00 -1.8533960e-01 1.0507962e+00 -5.5034448e+00 -1.4706983e-01 1.5192880e-02 -4.8782076e-02 -3.8269762e-02
89              1.0651930e+00 -5.5433651e+00 -1.8342377e-01 1.0500054e+00 -5.4946540e+00 -1.4511529e-01 1.5187553e-02 -4.8711161e-02 -3.8308475e-02
90              1.0659636e+00 -5.5446483e+00 -1.8186541e-01 1.0507723e+00 -5.4959681e+00 -1.4347898e-01 1.5191306e-02 -4.8680195e-02 -3.8386427e-02
91              1.0651932e+00 -5.5363513e+00 -1.7959434e-01 1.0500041e+00 -5.4877380e+00 -1.4114838e-01 1.5189095e-02 -4.8613328e-02 -3.8445960e-02
92              1.0654773e+00 -5.5356360e+00 -1.7768364e-01 1.0502852e+00 -5.4870635e+00 -1.3916396e-01 1.5192113e-02 -4.8572573e-02 -3.8519675e-02
93              1.0643953e+00 -5.5261215e+00 -1.7525533e-01 1.0492055e+00 -5.4776217e+00 -1.3668249e-01 1.5189863e-02 -4.8499805e-02 -3.8572837e-02
94              1.0650548e+00 -5.5278251e+00 -1.7344192e-01 1.0498578e+00 -5.4793545e+00 -1.3477493e-01 1.5197083e-02 -4.8470642e-02 -3.8666991e-02
95              1.0640873e+00 -5.5192990e+00 -1.7101296e-01 1.0488900e+00 -5.4708971e+00 -1.3227677e-01 1.5197294e-02 -4.8401826e-02 -3.8736186e-02
96              1.0642876e+00 -5.5193046e+00 -1.6894443e-01 1.0490845e+00 -5.4709402e+00 -1.3012310e-01 1.5203086e-02 -4.8364368e-02 -3.8821329e-02
97              1.0630868e+00 -5.5101698e+00 -1.6629595e-01 1.0478838e+00 -5.4618782e+00 -1.2741321e-01 1.5203043e-02 -4.8291610e-02 -3.8882736e-02
98              1.0636449e+00 -5.5124985e+00 -1.6421713e-01 1.0484329e+00 -5.4642362e+00 -1.2523573e-01 1.5212060e-02 -4.8262286e-02 -3.8981394e-02
99              1.0626093e+00 -5.5047913e+00 -1.6148715e-01 1.0473953e+00 -5.4565986e+00 -1.2243176e-01 1.5213978e-02 -4.8192685e-02 -3.9055397e-02
100             1.0627547e+00 -5.5057558e+00 -1.5910691e-01 1.0475335e+00 -5.4576033e+00 -1.1996489e-01 1.5221215e-02 -4.8152578e-02 -3.9142023e-02
101             1.0614987e+00 -5.4978321e+00 -1.5599927e-01 1.0462773e+00 -5.4497580e+00 -1.1680264e-01 1.5221432e-02 -4.8074061e-02 -3.9196624e-02
102             1.0620675e+00 -5.5018773e+00 -1.5334763e-01 1.0468351e+00 -5.4538302e+00 -1.1405166e-01 1.5232336e-02 -4.8047023e-02 -3.9295971e-02
103             1.0610592e+00 -5.4960312e+00 -1.5002743e-01 1.0458242e+00 -5.4480536e+00 -1.1066339e-01 1.5235002e-02 -4.7977638e-02 -3.9364040e-02
104             1.0611174e+00 -5.4981653e+00 -1.4698761e-01 1.0458747e+00 -5.4502266e+00 -1.0754510e-01 1.5242688e-02 -4.7938742e-02 -3.9442505e-02
105             1.0599440e+00 -5.4924589e+00 -1.4308797e-01 1.0446991e+00 -5.4445898e+00 -1.0359224e-01 1.5244843e-02 -4.7869142e-02 -3.9495728e-02
106             1.0604179e+00 -5.4977669e+00 -1.3939994e-01 1.0451632e+00 -5.4499274e+00 -9.9816782e-02 1.5254693e-02 -4.7839451e-02 -3.9583155e-02
107             1.0594014e+00 -5.4938759e+00 -1.3483148e-01 1.0441440e+00 -5.4461026e+00 -9.5189649e-02 1.5257468e-02 -4.7773313e-02 -3.9641827e-02
108             1.0595676e+00 -5.4982614e+00 -1.3053540e-01 1.0443019e+00 -5.4505220e+00 -9.0815408e-02 1.5265760e-02 -4.7739432e-02 -3.9719993e-02
109             1.0585197e+00 -5.4949413e+00 -1.2554609e-01 1.0432517e+00 -5.4472670e+00 -8.5773784e-02 1.5268023e-02 -4.7674275e-02 -3.9772309e-02
110             1.0588368e+00 -5.5004764e+00 -1.2094451e-01 1.0435595e+00 -5.4528301e+00 -8.1090649e-02 1.5277308e-02 -4.7646314e-02 -3.9853860e-02
111             1.0579617e+00 -5.4984703e+00 -1.1589326e-01 1.0426816e+00 -5.4508847e+00 -7.5984896e-02 1.5280057e-02 -4.7585562e-02 -3.9908361e-02
112             1.0580864e+00 -5.5030194e+00 -1.1129137e-01 1.0427982e+00 -5.4554630e+00 -7.1308945e-02 1.5288204e-02 -4.7556316e-02 -3.9982426e-02
113             1.0572388e+00 -5.5014242e+00 -1.0644411e-01 1.0419491e+00 -5.4539282e+00 -6.6418517e-02 1.5289664e-02 -4.7496025e-02 -4.0025593e-02
114             1.0574985e+00 -5.5063449e+00 -1.0204769e-01 1.0421994e+00 -5.4588686e+00 -6.1943029e-02 1.5299054e-02 -4.7476312e-02 -4.0104661e-02
115             1.0569659e+00 -5.5063892e+00 -9.7777516e-02 1.0416641e+00 -5.4589628e+00 -5.7621862e-02 1.5301819e-02 -4.7426349e-02 -4.0155653e-02
116             1.0568669e+00 -5.5088537e+00 -9.4008412e-02 1.0415584e+00 -5.4614543e+00 -5.3791090e-02 1.5308452e-02 -4.7399413e-02 -4.0217322e-02
117             1.0562819e+00 -5.5082207e+00 -9.0634112e-02 1.0409719e+00 -5.4608714e+00 -5.0378617e-02 1.5309986e-02 -4.7349363e-02 -4.0255495e-02
118             1.0566332e+00 -5.5122924e+00 -8.7775105e-02 1.0413152e+00 -5.4649602e+00 -4.7454917e-02 1.5318044e-02 -4.7332259e-02 -4.0320189e-02
119             1.0561061e+00 -5.5111517e+00 -8.5329402e-02 1.0407867e+00 -5.4638665e+00 -4.4971682e-02 1.5319414e-02 -4.7285183e-02 -4.0357720e-02
120             1.0563390e+00 -5.5142076e+00 -8.3332591e-02 1.0410138e+00 -5.4669427e+00 -4.2924975e-02 1.5325241e-02 -4.7264907e-02 -4.0407616e-02
121             1.0556412e+00 -5.5114818e+00 -8.1517818e-02 1.0403156e+00 -5.4642602e+00 -4.1080306e-02 1.5325680e-02 -4.7221643e-02 -4.0437512e-02
122             1.0561291e+00 -5.5154217e+00 -8.0231973e-02 1.0407973e+00 -5.4682122e+00 -3.9746313e-02 1.5331795e-02 -4.7209494e-02 -4.0485659e-02
123             1.0553984e+00 -5.5117606e+00 -7.9031036e-02 1.0400668e+00 -5.4645910e+00 -3.8521379e-02 1.5331644e-02 -4.7169597e-02 -4.0509657e-02
124             1.0558803e+00 -5.5153479e+00 -7.8294715e-02 1.0405432e+00 -5.4681870e+00 -3.7743603e-02 1.5337058e-02 -4.7160954e-02 -4.0551112e-02
125             1.0550435e+00 -5.5106339e+00 -7.7423158e-02 1.0397079e+00 -5.4635126e+00 -3.6857565e-02 1.5335622e-02 -4.7121271e-02 -4.0565592e-02
126             1.0556687e+00 -5.5148597e+00 -7.7023392e-02 1.0403272e+00 -5.4677396e+00 -3.6416893e-02 1.5341550e-02 -4.7120069e-02 -4.0606499e-02
127             1.0549439e+00 -5.5104500e+00 -7.6369787e-02 1.0396029e+00 -5.4633620e+00 -3.5743448e-02 1.5341017e-02 -4.7088000e-02 -4.0626339e-02
128             1.0553528e+00 -5.5135308e+00 -7.6156179e-02 1.0400083e+00 -5.4664490e+00 -3.5503731e-02 1.5344503e-02 -4.7081830e-02 -4.0652448e-02
129             1.0544817e+00 -5.5081705e+00 -7.5538083e-02 1.0391391e+00 -5.4611212e+00 -3.4878993e-02 1.5342634e-02 -4.7049208e-02 -4.0659090e-02
130             1.0553620e+00 -5.5138726e+00 -7.5456909e-02 1.0400141e+00 -5.4668179e+00 -3.4765131e-02 1.5347837e-02 -4.7054692e-02 -4.0691778e-02
131             1.0545354e+00 -5.5085298e+00 -7.4795958e-02 1.0391893e+00 -5.4615047e+00 -3.4094401e-02 1.5346121e-02 -4.7025121e-02 -4.0701557e-02
132             1.0551587e+00 -5.5130658e+00 -7.4771137e-02 1.0398096e+00 -5.4660404e+00 -3.4048856e-02 1.5349109e-02 -4.7025454e-02 -4.0722281e-02
133             1.0542220e+00 -5.5071040e+00 -7.4082707e-02 1.0388754e+00 -5.4601090e+00 -3.3357834e-02 1.5346516e-02 -4.6995057e-02 -4.0724874e-02
134             1.0551005e+00 -5.5130999e+00 -7.4073918e-02 1.0397502e+00 -5.4660978e+00 -3.3327360e-02 1.5350307e-02 -4.7002097e-02 -4.0746558e-02
135             1.0542569e+00 -5.5077558e+00 -7.3362155e-02 1.0389093e+00 -5.4607820e+00 -3.2614987e-02 1.5347573e-02 -4.6973745e-02 -4.0747168e-02
136             1.0549859e+00 -5.5129080e+00 -7.3240489e-02 1.0396354e+00 -5.4659291e+00 -3.2475957e-02 1.5350500e-02 -4.6978903e-02 -4.0764532e-02
137             1.0540551e+00 -5.5071198e+00 -7.2441737e-02 1.0387089e+00 -5.4601731e+00 -3.1686693e-02 1.5346209e-02 -4.6946777e-02 -4.0755044e-02
138             1.0549268e+00 -5.5131722e+00 -7.2307319e-02 1.0395762e+00 -5.4662112e+00 -3.1529457e-02 1.5350651e-02 -4.6960942e-02 -4.0777862e-02
139             1.0542159e+00 -5.5086652e+00 -7.1550648e-02 1.0388677e+00 -5.4617274e+00 -3.0771166e-02 1.5348133e-02 -4.6937848e-02 -4.0779483e-02
140             1.0547154e+00 -5.5127102e+00 -7.1356514e-02 1.0393657e+00 -5.4657681e+00 -3.0569066e-02 1.5349778e-02 -4.6942133e-02 -4.0787448e-02
141             1.0539711e+00 -5.5080403e+00 -7.0534387e-02 1.0386236e+00 -5.4611185e+00 -2.9748546e-02 1.5347428e-02 -4.6921772e-02 -4.0785841e-02
142             1.0547474e+00 -5.5136318e+00 -7.0350357e-02 1.0393976e+00 -5.4667007e+00 -2.9553662e-02 1.5349855e-02 -4.6931108e-02 -4.0796696e-02
143             1.0539862e+00 -5.5090014e+00 -6.9496489e-02 1.0386395e+00 -5.4620923e+00 -2.8707477e-02 1.5346675e-02 -4.6909122e-02 -4.0789011e-02
144             1.0547461e+00 -5.5144581e+00 -6.9219521e-02 1.0393971e+00 -5.4675400e+00 -2.8417565e-02 1.5348989e-02 -4.6918138e-02 -4.0801956e-02
145             1.0539524e+00 -5.5096646e+00 -6.8295630e-02 1.0386072e+00 -5.4627703e+00 -2.7504707e-02 1.5345199e-02 -4.6894374e-02 -4.0790924e-02
146             1.0547317e+00 -5.5153044e+00 -6.8018076e-02 1.0393836e+00 -5.4683977e+00 -2.7212102e-02 1.5348050e-02 -4.6906682e-02 -4.0805974e-02
147             1.0540308e+00 -5.5111116e+00 -6.7127768e-02 1.0386857e+00 -5.4642245e+00 -2.6326754e-02 1.5345150e-02 -4.6887139e-02 -4.0801014e-02
148             1.0546086e+00 -5.5156143e+00 -6.6802149e-02 1.0392619e+00 -5.4687196e+00 -2.5992855e-02 1.5346795e-02 -4.6894739e-02 -4.0809294e-02
149             1.0538430e+00 -5.5110988e+00 -6.5876813e-02 1.0384995e+00 -5.4642244e+00 -2.5077315e-02 1.5343506e-02 -4.6874348e-02 -4.0799498e-02
150             1.0546294e+00 -5.5167351e+00 -6.5547057e-02 1.0392832e+00 -5.4698485e+00 -2.4734110e-02 1.5346173e-02 -4.6886568e-02 -4.0812947e-02
151             1.0539641e+00 -5.5129209e+00 -6.4623924e-02 1.0386211e+00 -5.4660534e+00 -2.3820415e-02 1.5343025e-02 -4.6867447e-02 -4.0803510e-02
152             1.0545463e+00 -5.5173283e+00 -6.4206385e-02 1.0392012e+00 -5.4704519e+00 -2.3390240e-02 1.5345117e-02 -4.6876411e-02 -4.0816145e-02
153             1.0538472e+00 -5.5134125e+00 -6.3256484e-02 1.0385062e+00 -5.4665588e+00 -2.2456046e-02 1.5341030e-02 -4.6853679e-02 -4.0800438e-02
154             1.0544594e+00 -5.5179454e+00 -6.2804991e-02 1.0391148e+00 -5.4710772e+00 -2.1985019e-02 1.5344517e-02 -4.6868269e-02 -4.0819971e-02
155             1.0540571e+00 -5.5159024e+00 -6.1944561e-02 1.0387146e+00 -5.4690482e+00 -2.1128403e-02 1.5342473e-02 -4.6854194e-02 -4.0816158e-02
156             1.0541703e+00 -5.5174589e+00 -6.1357084e-02 1.0388269e+00 -5.4706021e+00 -2.0532840e-02 1.5343386e-02 -4.6856783e-02 -4.0824244e-02
157             1.0538545e+00 -5.5161870e+00 -6.0519714e-02 1.0385128e+00 -5.4693419e+00 -1.9702038e-02 1.5341728e-02 -4.6845102e-02 -4.0817676e-02
158             1.0541811e+00 -5.5187289e+00 -5.9870038e-02 1.0388373e+00 -5.4718773e+00 -1.9038682e-02 1.5343738e-02 -4.6851624e-02 -4.0831356e-02
159             1.0539464e+00 -5.5181973e+00 -5.9054509e-02 1.0386046e+00 -5.4713584e+00 -1.8230964e-02 1.5341774e-02 -4.6838856e-02 -4.0823545e-02
160             1.0540519e+00 -5.5193028e+00 -5.8210247e-02 1.0387087e+00 -5.4724618e+00 -1.7372856e-02 1.5343249e-02 -4.6841010e-02 -4.0837390e-02
161             1.0538302e+00 -5.5191418e+00 -5.7379736e-02 1.0384899e+00 -5.4723175e+00 -1.6556969e-02 1.5340262e-02 -4.6824250e-02 -4.0822767e-02
162             1.0539970e+00 -5.5204844e+00 -5.6415456e-02 1.0386537e+00 -5.4736527e+00 -1.5571669e-02 1.5343334e-02 -4.6831729e-02 -4.0843788e-02
163             1.0539687e+00 -5.5214974e+00 -5.5650869e-02 1.0386264e+00 -5.4746758e+00 -1.4806930e-02 1.5342266e-02 -4.6821618e-02 -4.0843939e-02
164             1.0537354e+00 -5.5206480e+00 -5.4626030e-02 1.0383925e+00 -5.4738299e+00 -1.3775167e-02 1.5342832e-02 -4.6818124e-02 -4.0850864e-02
165             1.0537111e+00 -5.5217935e+00 -5.3886978e-02 1.0383687e+00 -5.4749823e+00 -1.3035018e-02 1.5342453e-02 -4.6811106e-02 -4.0851960e-02
166             1.0537041e+00 -5.5220633e+00 -5.2856852e-02 1.0383602e+00 -5.4752526e+00 -1.1995777e-02 1.5343872e-02 -4.6810675e-02 -4.0861074e-02
167             1.0535386e+00 -5.5224152e+00 -5.2143897e-02 1.0381961e+00 -5.4756153e+00 -1.1287155e-02 1.5342539e-02 -4.6799881e-02 -4.0856741e-02
168             1.0537130e+00 -5.5236114e+00 -5.1128044e-02 1.0383684e+00 -5.4768098e+00 -1.0256267e-02 1.5344635e-02 -4.6801594e-02 -4.0871777e-02
169             1.0534837e+00 -5.5235267e+00 -5.0436832e-02 1.0381402e+00 -5.4767355e+00 -9.5655968e-03 1.5343443e-02 -4.6791162e-02 -4.0871235e-02
170             1.0536572e+00 -5.5249376e+00 -4.9509474e-02 1.0383119e+00 -5.4781454e+00 -8.6256071e-03 1.5345290e-02 -4.6792204e-02 -4.0883867e-02
171             1.0531014e+00 -5.5227611e+00 -4.8752755e-02 1.0377605e+00 -5.4759927e+00 -7.8864484e-03 1.5340929e-02 -4.6768415e-02 -4.0866307e-02
172             1.0536566e+00 -5.5265768e+00 -4.7931197e-02 1.0383099e+00 -5.4797903e+00 -7.0347185e-03 1.5346692e-02 -4.6786489e-02 -4.0896479e-02
173             1.0532240e+00 -5.5246120e+00 -4.7092635e-02 1.0378783e+00 -5.4778379e+00 -6.1891587e-03 1.5345708e-02 -4.6774064e-02 -4.0903476e-02
174             1.0532505e+00 -5.5258371e+00 -4.6322727e-02 1.0379038e+00 -5.4790630e+00 -5.4157897e-03 1.5346776e-02 -4.6774088e-02 -4.0906937e-02
175             1.0529377e+00 -5.5243564e+00 -4.5417485e-02 1.0375906e+00 -5.4775901e+00 -4.4971881e-03 1.5347117e-02 -4.6766288e-02 -4.0920297e-02
176             1.0530403e+00 -5.5262090e+00 -4.4721439e-02 1.0376921e+00 -5.4794419e+00 -3.8016636e-03 1.5348191e-02 -4.6767070e-02 -4.0919775e-02
177             1.0528050e+00 -5.5249946e+00 -4.3773113e-02 1.0374563e+00 -5.4782360e+00 -2.8364140e-03 1.5348716e-02 -4.6758632e-02 -4.0936699e-02
178             1.0529753e+00 -5.5273395e+00 -4.3125947e-02 1.0376255e+00 -5.4805803e+00 -2.1885472e-03 1.5349758e-02 -4.6759239e-02 -4.0937400e-02
179             1.0526158e+00 -5.5252669e+00 -4.2119536e-02 1.0372655e+00 -5.4785170e+00 -1.1657465e-03 1.5350257e-02 -4.6749951e-02 -4.0953790e-02
180             1.0527886e+00 -5.5277765e+00 -4.1551845e-02 1.0374372e+00 -5.4810254e+00 -5.9640961e-04 1.5351365e-02 -4.6751038e-02 -4.0955435e-02
181             1.0523999e+00 -5.5253371e+00 -4.0511977e-02 1.0370478e+00 -5.4785952e+00 4.6042463e-04 1.5352103e-02 -4.6741938e-02 -4.0972402e-02
182             1.0526298e+00 -5.5282735e+00 -4.0066971e-02 1.0372763e+00 -5.4815291e+00 9.0840233e-04 1.5353449e-02 -4.6744357e-02 -4.0975373e-02
183             1.0521838e+00 -5.5253908e+00 -3.9074346e-02 1.0368299e+00 -5.4786573e+00 1.9172447e-03 1.5353957e-02 -4.6733495e-02 -4.0991590e-02
184             1.0524092e+00 -5.5283039e+00 -3.8718972e-02 1.0370542e+00 -5.4815688e+00 2.2733313e-03 1.5355014e-02 -4.6735120e-02 -4.0992304e-02
185             1.0520560e+00 -5.5258880e+00 -3.7793513e-02 1.0366997e+00 -5.4791605e+00 3.2183642e-03 1.5356289e-02 -4.6727522e-02 -4.1011877e-02
186             1.0523389e+00 -5.5289440e+00 -3.7481174e-02 1.0369807e+00 -5.4822119e+00 3.5386017e-03 1.5358259e-02 -4.6732109e-02 -4.1019776e-02
187             1.0517633e+00 -5.5252360e+00 -3.6608592e-02 1.0364052e+00 -5.4785173e+00 4.4235075e-03 1.5358121e-02 -4.6718664e-02 -4.1032099e-02
188             1.0519455e+00 -5.5277548e+00 -3.6392764e-02 1.0365864e+00 -5.4810346e+00 4.6394210e-03 1.5359150e-02 -4.6720193e-02 -4.1032185e-02
189             1.0517388e+00 -5.5259905e+00 -3.5627907e-02 1.0363778e+00 -5.4792755e+00 5.4258743e-03 1.5360944e-02 -4.6714917e-02 -4.1053781e-02
190             1.0520000e+00 -5.5288329e+00 -3.5444008e-02 1.0366374e+00 -5.4821143e+00 5.6148197e-03 1.5362611e-02 -4.6718606e-02 -4.1058827e-02
191             1.0515218e+00 -5.5255354e+00 -3.4712828e-02 1.0361589e+00 -5.4788286e+00 6.3615147e-03 1.5362886e-02 -4.6706789e-02 -4.1074342e-02
192             1.0517110e+00 -5.5279705e+00 -3.4614252e-02 1.0363469e+00 -5.4812613e+00 6.4623432e-03 1.5364143e-02 -4.6709230e-02 -4.1076595e-02
193             1.0513665e+00 -5.5253853e+00 -3.3964658e-02 1.0360013e+00 -5.4786840e+00 7.1300686e-03 1.5365240e-02 -4.6701291e-02 -4.1094726e-02
194             1.0516308e+00 -5.5281452e+00 -3.3912210e-02 1.0362639e+00 -5.4814396e+00 7.1880155e-03 1.5366981e-02 -4.6705543e-02 -4.1100225e-02
195             1.0511829e+00 -5.5249485e+00 -3.3292608e-02 1.0358155e+00 -5.4782536e+00 7.8219523e-03 1.5367374e-02 -4.6694875e-02 -4.1114561e-02
196             1.0513747e+00 -5.5273060e+00 -3.3289509e-02 1.0360065e+00 -5.4806102e+00 7.8236547e-03 1.5368122e-02 -4.6695777e-02 -4.1113164e-02
197             1.0511178e+00 -5.5251084e+00 -3.2732867e-02 1.0357479e+00 -5.4784172e+00 8.4011037e-03 1.5369897e-02 -4.6691137e-02 -4.1133971e-02
198             1.0514475e+00 -5.5281140e+00 -3.2775665e-02 1.0360756e+00 -5.4814174e+00 8.3664893e-03 1.5371880e-02 -4.6696578e-02 -4.1142154e-02
199             1.0508661e+00 -5.5241519e+00 -3.2239272e-02 1.0354945e+00 -5.4774683e+00 8.9127836e-03 1.5371550e-02 -4.6683606e-02 -4.1152056e-02
200             1.0510569e+00 -5.5264379e+00 -3.2312997e-02 1.0356854e+00 -5.4797558e+00 8.8326890e-03 1.5371511e-02 -4.6682021e-02 -4.1145686e-02
201             1.0509173e+00 -5.5248096e+00 -3.1825935e-02 1.0355429e+00 -5.4781266e+00 9.3448623e-03 1.5374467e-02 -4.6682979e-02 -4.1170797e-02