# Moment       
# CofR         : (0.0000000e+00 0.0000000e+00 0.0000000e+00)
#
# Time         	total_x total_y total_z	pressure_x pressure_y pressure_z	viscous_x viscous_y viscous_z
1               9.4372820e-03 -4.8951178e-02 -1.7537645e-02 8.7267190e-03 -4.6607953e-02 -1.5280045e-02 7.1056302e-04 -2.3432244e-03 -2.2575996e-03
2               2.6631075e+00 -1.3348878e+01 -2.9110890e+00 2.6624793e+00 -1.3346907e+01 -2.9090914e+00 6.2821707e-04 -1.9714971e-03 -1.9975923e-03
3               2.4295147e+00 -1.2363940e+01 -1.8147912e+00 2.4289550e+00 -1.2362279e+01 -1.8130045e+00 5.5965548e-04 -1.6606870e-03 -1.7866397e-03
4               1.6454093e+00 -8.6637020e+00 -3.1153124e-01 1.6449005e+00 -8.6622470e+00 -3.0992157e-01 5.0881632e-04 -1.4550276e-03 -1.6096644e-03
5               1.2183586e+00 -6.6837760e+00 3.4650206e-01 1.2178880e+00 -6.6824385e+00 3.4794362e-01 4.7066421e-04 -1.3375284e-03 -1.4415620e-03
6               1.1346189e+00 -6.3502291e+00 3.6781799e-01 1.1341750e+00 -6.3489265e+00 3.6909336e-01 4.4393687e-04 -1.3025491e-03 -1.2753746e-03
7               1.1824482e+00 -6.6291416e+00 1.7671173e-01 1.1820201e+00 -6.6278128e+00 1.7783883e-01 4.2811434e-04 -1.3287936e-03 -1.1271019e-03
8               1.2318662e+00 -6.8982518e+00 6.1227590e-03 1.2314473e+00 -6.8968661e+00 7.1230087e-03 4.1893198e-04 -1.3857278e-03 -1.0002496e-03
9               1.2511673e+00 -7.0077209e+00 -1.0397549e-01 1.2507544e+00 -7.0062655e+00 -1.0308530e-01 4.1289240e-04 -1.4554313e-03 -8.9018638e-04
10              1.2478386e+00 -6.9991110e+00 -1.7101456e-01 1.2474299e+00 -6.9975798e+00 -1.7021906e-01 4.0870057e-04 -1.5312682e-03 -7.9549501e-04
11              1.2379821e+00 -6.9505635e+00 -2.2562540e-01 1.2375760e+00 -6.9489549e+00 -2.2490808e-01 4.0606874e-04 -1.6085976e-03 -7.1731832e-04
12              1.2293523e+00 -6.9011176e+00 -2.7326976e-01 1.2289475e+00 -6.8994355e+00 -2.7261344e-01 4.0479572e-04 -1.6820167e-03 -6.5631797e-04
13              1.2224352e+00 -6.8546785e+00 -3.0792478e-01 1.2220304e+00 -6.8529285e+00 -3.0731355e-01 4.0476658e-04 -1.7499188e-03 -6.1123383e-04
14              1.2160385e+00 -6.8078207e+00 -3.2664802e-01 1.2156327e+00 -6.8060102e+00 -3.2606674e-01 4.0577327e-04 -1.8104714e-03 -5.8128268e-04
15              1.2093363e+00 -6.7591992e+00 -3.3092945e-01 1.2089285e+00 -6.7573358e+00 -3.3036429e-01 4.0775933e-04 -1.8634141e-03 -5.6516375e-04
16              1.2019118e+00 -6.7079419e+00 -3.2415141e-01 1.2015011e+00 -6.7060323e+00 -3.2358930e-01 4.1070715e-04 -1.9096331e-03 -5.6211308e-04
17              1.1936670e+00 -6.6526357e+00 -3.1043003e-01 1.1932525e+00 -6.6506861e+00 -3.0985961e-01 4.1449537e-04 -1.9495825e-03 -5.7042131e-04
18              1.1843930e+00 -6.5909312e+00 -2.9253298e-01 1.1839740e+00 -6.5889477e+00 -2.9194420e-01 4.1898263e-04 -1.9834841e-03 -5.8877816e-04
19              1.1740737e+00 -6.5215379e+00 -2.7344603e-01 1.1736497e+00 -6.5195262e+00 -2.7283040e-01 4.2405529e-04 -2.0116272e-03 -6.1563588e-04
20              1.1630876e+00 -6.4457539e+00 -2.5725513e-01 1.1626580e+00 -6.4437195e+00 -2.5660535e-01 4.2962539e-04 -2.0343260e-03 -6.4977879e-04
21              1.1517548e+00 -6.3659289e+00 -2.4734782e-01 1.1513194e+00 -6.3638777e+00 -2.4665905e-01 4.3539488e-04 -2.0511896e-03 -6.8876484e-04
22              1.1412029e+00 -6.2890855e+00 -2.4522190e-01 1.1407613e+00 -6.2870211e+00 -2.4448921e-01 4.4162768e-04 -2.0644027e-03 -7.3269610e-04
23              1.1305730e+00 -6.2117757e+00 -2.4946532e-01 1.1301253e+00 -6.2097035e+00 -2.4868685e-01 4.4771954e-04 -2.0721823e-03 -7.7847305e-04
24              1.1204692e+00 -6.1381917e+00 -2.5711302e-01 1.1200153e+00 -6.1361148e+00 -2.5628696e-01 4.5395528e-04 -2.0768490e-03 -8.2606643e-04
25              1.1100888e+00 -6.0650408e+00 -2.6520626e-01 1.1096289e+00 -6.0629636e+00 -2.6433274e-01 4.5991338e-04 -2.0772225e-03 -8.7351227e-04
26              1.1003602e+00 -5.9975553e+00 -2.7229793e-01 1.0998943e+00 -5.9954798e+00 -2.7137650e-01 4.6589016e-04 -2.0754740e-03 -9.2142523e-04
27              1.0901642e+00 -5.9294639e+00 -2.7847342e-01 1.0896927e+00 -5.9273933e+00 -2.7750608e-01 4.7145663e-04 -2.0705964e-03 -9.6733959e-04
28              1.0807426e+00 -5.8670767e+00 -2.8407805e-01 1.0802657e+00 -5.8650124e+00 -2.8306554e-01 4.7688372e-04 -2.0643749e-03 -1.0125087e-03
29              1.0711887e+00 -5.8056030e+00 -2.8903686e-01 1.0707069e+00 -5.8035469e+00 -2.8798212e-01 4.8183365e-04 -2.0560863e-03 -1.0547394e-03
30              1.0626480e+00 -5.7508242e+00 -2.9338203e-01 1.0621614e+00 -5.7487765e+00 -2.9228622e-01 4.8667595e-04 -2.0476565e-03 -1.0958042e-03
31              1.0541991e+00 -5.6976757e+00 -2.9712963e-01 1.0537080e+00 -5.6956378e+00 -2.9599573e-01 4.9104560e-04 -2.0379010e-03 -1.1339009e-03
32              1.0464732e+00 -5.6495568e+00 -3.0030637e-01 1.0459780e+00 -5.6475286e+00 -2.9913668e-01 4.9519164e-04 -2.0282361e-03 -1.1696894e-03
33              1.0388986e+00 -5.6029230e+00 -3.0293008e-01 1.0383998e+00 -5.6009057e+00 -3.0172770e-01 4.9881239e-04 -2.0172566e-03 -1.2023858e-03
34              1.0328812e+00 -5.5658617e+00 -3.0516661e-01 1.0323788e+00 -5.5638539e+00 -3.0393300e-01 5.0243324e-04 -2.0077762e-03 -1.2336057e-03
35              1.0264831e+00 -5.5266488e+00 -3.0666618e-01 1.0259776e+00 -5.5246521e+00 -3.0540478e-01 5.0543804e-04 -1.9966775e-03 -1.2613935e-03
36              1.0216460e+00 -5.4972147e+00 -3.0791218e-01 1.0211376e+00 -5.4952279e+00 -3.0662464e-01 5.0834877e-04 -1.9867760e-03 -1.2875423e-03
37              1.0163581e+00 -5.4646914e+00 -3.0836351e-01 1.0158475e+00 -5.4627159e+00 -3.0705314e-01 5.1068279e-04 -1.9754644e-03 -1.3103691e-03
38              1.0129735e+00 -5.4436868e+00 -3.0862978e-01 1.0124605e+00 -5.4417207e+00 -3.0729766e-01 5.1306045e-04 -1.9660390e-03 -1.3321226e-03
39              1.0088740e+00 -5.4179473e+00 -3.0803499e-01 1.0083592e+00 -5.4159923e+00 -3.0668454e-01 5.1480397e-04 -1.9549123e-03 -1.3504505e-03
40              1.0065228e+00 -5.4030848e+00 -3.0730469e-01 1.0060061e+00 -5.4011385e+00 -3.0593676e-01 5.1667739e-04 -1.9462656e-03 -1.3679308e-03
41              1.0033870e+00 -5.3829110e+00 -3.0572864e-01 1.0028692e+00 -5.3809754e+00 -3.0434680e-01 5.1785493e-04 -1.9355804e-03 -1.3818433e-03
42              1.0021968e+00 -5.3745657e+00 -3.0411302e-01 1.0016775e+00 -5.3726377e+00 -3.0271722e-01 5.1929808e-04 -1.9279289e-03 -1.3957974e-03
43              1.0000743e+00 -5.3601616e+00 -3.0176612e-01 9.9955421e-01 -5.3582434e+00 -3.0035988e-01 5.2004811e-04 -1.9182640e-03 -1.4062406e-03
44              9.9949700e-01 -5.3553254e+00 -2.9929278e-01 9.9897603e-01 -5.3534143e+00 -2.9787635e-01 5.2096773e-04 -1.9111150e-03 -1.4164331e-03
45              9.9809651e-01 -5.3450815e+00 -2.9603142e-01 9.9757528e-01 -5.3431794e+00 -2.9460815e-01 5.2123024e-04 -1.9020698e-03 -1.4232620e-03
46              9.9843998e-01 -5.3454460e+00 -2.9268725e-01 9.9791815e-01 -5.3435499e+00 -2.9125658e-01 5.2182457e-04 -1.8961041e-03 -1.4306655e-03
47              9.9791607e-01 -5.3402071e+00 -2.8885743e-01 9.9739425e-01 -5.3383187e+00 -2.8742222e-01 5.2182534e-04 -1.8884048e-03 -1.4352137e-03
48              9.9853639e-01 -5.3422919e+00 -2.8490842e-01 9.9801445e-01 -5.3404093e+00 -2.8346887e-01 5.2193756e-04 -1.8825927e-03 -1.4395446e-03
49              9.9850242e-01 -5.3400910e+00 -2.8053466e-01 9.9798089e-01 -5.3382157e+00 -2.7909347e-01 5.2152729e-04 -1.8753060e-03 -1.4411870e-03
50              1.0000418e+00 -5.3472340e+00 -2.7612899e-01 9.9952044e-01 -5.3453637e+00 -2.7468511e-01 5.2141260e-04 -1.8703723e-03 -1.4438853e-03
51              1.0007834e+00 -5.3493704e+00 -2.7145592e-01 1.0002624e+00 -5.3475056e+00 -2.7001150e-01 5.2094497e-04 -1.8647911e-03 -1.4444185e-03
52              1.0024147e+00 -5.3570588e+00 -2.6690718e-01 1.0018941e+00 -5.3551981e+00 -2.6546213e-01 5.2058989e-04 -1.8606963e-03 -1.4450497e-03
53              1.0032516e+00 -5.3596850e+00 -2.6204166e-01 1.0027318e+00 -5.3578301e+00 -2.6059811e-01 5.1974074e-04 -1.8548164e-03 -1.4435482e-03
54              1.0057226e+00 -5.3719325e+00 -2.5734241e-01 1.0052033e+00 -5.3700807e+00 -2.5589890e-01 5.1933094e-04 -1.8517639e-03 -1.4435120e-03
55              1.0072952e+00 -5.3786975e+00 -2.5257873e-01 1.0067767e+00 -5.3768506e+00 -2.5113715e-01 5.1843347e-04 -1.8468105e-03 -1.4415760e-03
56              1.0096764e+00 -5.3903013e+00 -2.4800863e-01 1.0091586e+00 -5.3884576e+00 -2.4656827e-01 5.1779806e-04 -1.8437206e-03 -1.4403544e-03
57              1.0114208e+00 -5.3980555e+00 -2.4333186e-01 1.0109041e+00 -5.3962164e+00 -2.4189443e-01 5.1675798e-04 -1.8390250e-03 -1.4374332e-03
58              1.0143540e+00 -5.4124711e+00 -2.3888442e-01 1.0138378e+00 -5.4106344e+00 -2.3744817e-01 5.1616053e-04 -1.8367433e-03 -1.4362512e-03
59              1.0163720e+00 -5.4214372e+00 -2.3441451e-01 1.0158569e+00 -5.4196045e+00 -2.3298090e-01 5.1515809e-04 -1.8326986e-03 -1.4336086e-03
60              1.0189821e+00 -5.4338245e+00 -2.3018053e-01 1.0184677e+00 -5.4319943e+00 -2.2874866e-01 5.1441500e-04 -1.8301594e-03 -1.4318722e-03
61              1.0209833e+00 -5.4425952e+00 -2.2592811e-01 1.0204700e+00 -5.4407690e+00 -2.2449924e-01 5.1336699e-04 -1.8262809e-03 -1.4288714e-03
62              1.0240530e+00 -5.4572833e+00 -2.2191784e-01 1.0235402e+00 -5.4554587e+00 -2.2049002e-01 5.1277434e-04 -1.8245993e-03 -1.4278213e-03
63              1.0260899e+00 -5.4658493e+00 -2.1795410e-01 1.0255781e+00 -5.4640283e+00 -2.1652857e-01 5.1179122e-04 -1.8209587e-03 -1.4255277e-03
64              1.0287116e+00 -5.4776927e+00 -2.1432631e-01 1.0282005e+00 -5.4758738e+00 -2.1290182e-01 5.1112900e-04 -1.8188572e-03 -1.4244963e-03
65              1.0306511e+00 -5.4854426e+00 -2.1087199e-01 1.0301410e+00 -5.4836275e+00 -2.0944962e-01 5.1015387e-04 -1.8151264e-03 -1.4223722e-03
66              1.0335587e+00 -5.4985399e+00 -2.0762402e-01 1.0330491e+00 -5.4967264e+00 -2.0620179e-01 5.0965070e-04 -1.8135115e-03 -1.4222326e-03
67              1.0354300e+00 -5.5055284e+00 -2.0439245e-01 1.0349213e+00 -5.5037184e+00 -2.0297132e-01 5.0879309e-04 -1.8099734e-03 -1.4211274e-03
68              1.0377940e+00 -5.5151876e+00 -2.0139925e-01 1.0372857e+00 -5.5133798e+00 -1.9997799e-01 5.0825853e-04 -1.8078697e-03 -1.4212565e-03
69              1.0394191e+00 -5.5204224e+00 -1.9858052e-01 1.0389116e+00 -5.5186182e+00 -1.9716015e-01 5.0742947e-04 -1.8042022e-03 -1.4203650e-03
70              1.0420122e+00 -5.5309354e+00 -1.9605958e-01 1.0415051e+00 -5.5291329e+00 -1.9463807e-01 5.0708043e-04 -1.8025586e-03 -1.4215153e-03
71              1.0435292e+00 -5.5350247e+00 -1.9357307e-01 1.0430228e+00 -5.5332258e+00 -1.9215123e-01 5.0638853e-04 -1.7989702e-03 -1.4218428e-03
72              1.0455589e+00 -5.5419897e+00 -1.9141365e-01 1.0450529e+00 -5.5401928e+00 -1.8999029e-01 5.0602747e-04 -1.7968918e-03 -1.4233599e-03
73              1.0467859e+00 -5.5440796e+00 -1.8946056e-01 1.0462806e+00 -5.5422864e+00 -1.8803679e-01 5.0536085e-04 -1.7931386e-03 -1.4237718e-03
74              1.0489981e+00 -5.5516741e+00 -1.8774783e-01 1.0484929e+00 -5.5498827e+00 -1.8632160e-01 5.0516768e-04 -1.7914358e-03 -1.4262221e-03
75              1.0501198e+00 -5.5527482e+00 -1.8604519e-01 1.0496151e+00 -5.5509603e+00 -1.8461751e-01 5.0464507e-04 -1.7878614e-03 -1.4276749e-03
76              1.0517504e+00 -5.5568171e+00 -1.8456955e-01 1.0512460e+00 -5.5550314e+00 -1.8313933e-01 5.0442874e-04 -1.7857010e-03 -1.4302188e-03
77              1.0524969e+00 -5.5555728e+00 -1.8304680e-01 1.0519929e+00 -5.5537909e+00 -1.8161515e-01 5.0391907e-04 -1.7819136e-03 -1.4316531e-03
78              1.0543075e+00 -5.5604586e+00 -1.8173364e-01 1.0538036e+00 -5.5586783e+00 -1.8029870e-01 5.0389533e-04 -1.7803312e-03 -1.4349447e-03
79              1.0548856e+00 -5.5579157e+00 -1.8028390e-01 1.0543821e+00 -5.5561390e+00 -1.7884679e-01 5.0350392e-04 -1.7767123e-03 -1.4371001e-03
80              1.0561182e+00 -5.5595971e+00 -1.7907902e-01 1.0556147e+00 -5.5578223e+00 -1.7763863e-01 5.0346768e-04 -1.7747889e-03 -1.4403911e-03
81              1.0563084e+00 -5.5550392e+00 -1.7761068e-01 1.0558053e+00 -5.5532683e+00 -1.7616822e-01 5.0307877e-04 -1.7708545e-03 -1.4424640e-03
82              1.0576726e+00 -5.5575323e+00 -1.7627689e-01 1.0571694e+00 -5.5557630e+00 -1.7483046e-01 5.0319268e-04 -1.7692145e-03 -1.4464344e-03
83              1.0578102e+00 -5.5525481e+00 -1.7479814e-01 1.0573072e+00 -5.5507825e+00 -1.7334889e-01 5.0295423e-04 -1.7656104e-03 -1.4492458e-03
84              1.0586440e+00 -5.5524562e+00 -1.7339359e-01 1.0581410e+00 -5.5506926e+00 -1.7194040e-01 5.0305141e-04 -1.7636440e-03 -1.4531889e-03
85              1.0583151e+00 -5.5449945e+00 -1.7176636e-01 1.0578123e+00 -5.5432347e+00 -1.7031051e-01 5.0280119e-04 -1.7597368e-03 -1.4558524e-03
86              1.0592969e+00 -5.5458355e+00 -1.7025851e-01 1.0587938e+00 -5.5440772e+00 -1.6879796e-01 5.0306915e-04 -1.7583047e-03 -1.4605563e-03
87              1.0589222e+00 -5.5381710e+00 -1.6845590e-01 1.0584192e+00 -5.5364164e+00 -1.6699189e-01 5.0294241e-04 -1.7546330e-03 -1.4640116e-03
88              1.0594457e+00 -5.5369726e+00 -1.6697343e-01 1.0589425e+00 -5.5352198e+00 -1.6550484e-01 5.0317257e-04 -1.7528307e-03 -1.4685890e-03
89              1.0587045e+00 -5.5277869e+00 -1.6505423e-01 1.0582014e+00 -5.5260380e+00 -1.6358249e-01 5.0301929e-04 -1.7488401e-03 -1.4717432e-03
90              1.0594664e+00 -5.5284832e+00 -1.6334466e-01 1.0589630e+00 -5.5267357e+00 -1.6186779e-01 5.0340615e-04 -1.7475309e-03 -1.4768704e-03
91              1.0587203e+00 -5.5196424e+00 -1.6117468e-01 1.0582169e+00 -5.5178987e+00 -1.5969426e-01 5.0335063e-04 -1.7437271e-03 -1.4804270e-03
92              1.0590305e+00 -5.5184898e+00 -1.5954026e-01 1.0585268e+00 -5.5167476e+00 -1.5805504e-01 5.0368412e-04 -1.7422539e-03 -1.4852184e-03
93              1.0579777e+00 -5.5086639e+00 -1.5739347e-01 1.0574741e+00 -5.5069255e+00 -1.5590472e-01 5.0360477e-04 -1.7383417e-03 -1.4887526e-03
94              1.0586159e+00 -5.5099937e+00 -1.5570559e-01 1.0581118e+00 -5.5082564e+00 -1.5421148e-01 5.0408717e-04 -1.7372971e-03 -1.4941064e-03
95              1.0576602e+00 -5.5012181e+00 -1.5353240e-01 1.0571561e+00 -5.4994846e+00 -1.5203462e-01 5.0408711e-04 -1.7335034e-03 -1.4977736e-03
96              1.0578831e+00 -5.5010555e+00 -1.5181476e-01 1.0573787e+00 -5.4993235e+00 -1.5031236e-01 5.0447812e-04 -1.7320088e-03 -1.5023966e-03
97              1.0566863e+00 -5.4921878e+00 -1.4915299e-01 1.0561819e+00 -5.4904598e+00 -1.4764771e-01 5.0440770e-04 -1.7279387e-03 -1.5052761e-03
98              1.0572627e+00 -5.4953748e+00 -1.4674475e-01 1.0567578e+00 -5.4936480e+00 -1.4523455e-01 5.0492233e-04 -1.7268294e-03 -1.5101954e-03
99              1.0562202e+00 -5.4886201e+00 -1.4347668e-01 1.0557153e+00 -5.4868972e+00 -1.4196331e-01 5.0494010e-04 -1.7229428e-03 -1.5133689e-03
100             1.0563568e+00 -5.4906486e+00 -1.4048410e-01 1.0558515e+00 -5.4889273e+00 -1.3896657e-01 5.0534545e-04 -1.7213356e-03 -1.5175237e-03
101             1.0551155e+00 -5.4840378e+00 -1.3657159e-01 1.0546102e+00 -5.4823206e+00 -1.3505167e-01 5.0529001e-04 -1.7172343e-03 -1.5199244e-03
102             1.0556432e+00 -5.4892813e+00 -1.3288355e-01 1.0551374e+00 -5.4875650e+00 -1.3135901e-01 5.0582173e-04 -1.7162823e-03 -1.5245326e-03
103             1.0545972e+00 -5.4848170e+00 -1.2827819e-01 1.0540914e+00 -5.4831043e+00 -1.2675070e-01 5.0586076e-04 -1.7127069e-03 -1.5274900e-03
104             1.0546700e+00 -5.4885988e+00 -1.2389064e-01 1.0541637e+00 -5.4868873e+00 -1.2235904e-01 5.0628361e-04 -1.7114695e-03 -1.5315947e-03
105             1.0534397e+00 -5.4839776e+00 -1.1873053e-01 1.0529335e+00 -5.4822698e+00 -1.1719658e-01 5.0624510e-04 -1.7077801e-03 -1.5339495e-03
106             1.0539272e+00 -5.4904073e+00 -1.1405651e-01 1.0534204e+00 -5.4887002e+00 -1.1251801e-01 5.0678644e-04 -1.7071618e-03 -1.5384933e-03
107             1.0529399e+00 -5.4874290e+00 -1.0880517e-01 1.0524331e+00 -5.4857251e+00 -1.0726405e-01 5.0682998e-04 -1.7039034e-03 -1.5411150e-03
108             1.0529823e+00 -5.4917997e+00 -1.0400840e-01 1.0524751e+00 -5.4900969e+00 -1.0246362e-01 5.0724071e-04 -1.7028577e-03 -1.5447850e-03
109             1.0518632e+00 -5.4884813e+00 -9.8771501e-02 1.0513560e+00 -5.4867819e+00 -9.7224944e-02 5.0719799e-04 -1.6994262e-03 -1.5465572e-03
110             1.0523262e+00 -5.4950748e+00 -9.4088297e-02 1.0518185e+00 -5.4933758e+00 -9.2537697e-02 5.0771713e-04 -1.6990412e-03 -1.5506004e-03
111             1.0515019e+00 -5.4933932e+00 -8.9126497e-02 1.0509941e+00 -5.4916968e+00 -8.7573596e-02 5.0776336e-04 -1.6963507e-03 -1.5529008e-03
112             1.0514888e+00 -5.4971329e+00 -8.4814243e-02 1.0509807e+00 -5.4954372e+00 -8.3257821e-02 5.0814889e-04 -1.6956712e-03 -1.5564219e-03
113             1.0506059e+00 -5.4950391e+00 -8.0514975e-02 1.0500978e+00 -5.4933463e+00 -7.8957016e-02 5.0810030e-04 -1.6927962e-03 -1.5579587e-03
114             1.0509665e+00 -5.5001065e+00 -7.6839091e-02 1.0504580e+00 -5.4984139e+00 -7.5277431e-02 5.0857724e-04 -1.6925971e-03 -1.5616600e-03
115             1.0504715e+00 -5.4998106e+00 -7.3424032e-02 1.0499629e+00 -5.4981203e+00 -7.1860578e-02 5.0861584e-04 -1.6902270e-03 -1.5634544e-03
116             1.0503333e+00 -5.5014119e+00 -7.0564363e-02 1.0498243e+00 -5.4997225e+00 -6.8998146e-02 5.0893588e-04 -1.6894305e-03 -1.5662164e-03
117             1.0497789e+00 -5.5003795e+00 -6.8121198e-02 1.0492700e+00 -5.4986925e+00 -6.6553933e-02 5.0890036e-04 -1.6869610e-03 -1.5672645e-03
118             1.0500346e+00 -5.5032269e+00 -6.6012509e-02 1.0495253e+00 -5.5015402e+00 -6.4442409e-02 5.0928939e-04 -1.6866409e-03 -1.5701003e-03
119             1.0496286e+00 -5.5024349e+00 -6.4288551e-02 1.0491193e+00 -5.5007502e+00 -6.2717201e-02 5.0929597e-04 -1.6847009e-03 -1.5713503e-03
120             1.0496605e+00 -5.5036838e+00 -6.2852977e-02 1.0491509e+00 -5.5019995e+00 -6.1279358e-02 5.0957881e-04 -1.6842714e-03 -1.5736184e-03
121             1.0490159e+00 -5.5008757e+00 -6.1730179e-02 1.0485064e+00 -5.4991934e+00 -6.0155762e-02 5.0950903e-04 -1.6822276e-03 -1.5744163e-03
122             1.0494630e+00 -5.5040119e+00 -6.0893973e-02 1.0489532e+00 -5.5023296e+00 -5.9317254e-02 5.0984005e-04 -1.6822505e-03 -1.5767184e-03
123             1.0488604e+00 -5.5009535e+00 -6.0165548e-02 1.0483506e+00 -5.4992729e+00 -5.8588091e-02 5.0978462e-04 -1.6805338e-03 -1.5774573e-03
124             1.0491799e+00 -5.5031710e+00 -5.9667263e-02 1.0486698e+00 -5.5014905e+00 -5.8087866e-02 5.1005308e-04 -1.6805003e-03 -1.5793965e-03
125             1.0484214e+00 -5.4988995e+00 -5.9154370e-02 1.0479114e+00 -5.4972209e+00 -5.7574692e-02 5.0991953e-04 -1.6786209e-03 -1.5796789e-03
126             1.0489737e+00 -5.5024190e+00 -5.8875434e-02 1.0484634e+00 -5.5007400e+00 -5.7293851e-02 5.1023563e-04 -1.6790030e-03 -1.5815829e-03
127             1.0483479e+00 -5.4985938e+00 -5.8456234e-02 1.0478377e+00 -5.4969163e+00 -5.6874032e-02 5.1016834e-04 -1.6775277e-03 -1.5822025e-03
128             1.0486595e+00 -5.5009450e+00 -5.8322761e-02 1.0481491e+00 -5.4992674e+00 -5.6739343e-02 5.1036235e-04 -1.6775985e-03 -1.5834182e-03
129             1.0479141e+00 -5.4962832e+00 -5.7855660e-02 1.0474038e+00 -5.4946071e+00 -5.6272004e-02 5.1025195e-04 -1.6760707e-03 -1.5836558e-03
130             1.0486032e+00 -5.5008012e+00 -5.7801357e-02 1.0480927e+00 -5.4991246e+00 -5.6216294e-02 5.1050445e-04 -1.6765801e-03 -1.5850626e-03
131             1.0478051e+00 -5.4957032e+00 -5.7261274e-02 1.0472947e+00 -5.4940282e+00 -5.5676202e-02 5.1036609e-04 -1.6750445e-03 -1.5850719e-03
132             1.0484902e+00 -5.5004380e+00 -5.7241799e-02 1.0479796e+00 -5.4987624e+00 -5.5655449e-02 5.1059208e-04 -1.6755927e-03 -1.5863496e-03
133             1.0475925e+00 -5.4947061e+00 -5.6614493e-02 1.0470821e+00 -5.4930322e+00 -5.5028440e-02 5.1039115e-04 -1.6738470e-03 -1.5860525e-03
134             1.0484562e+00 -5.5006056e+00 -5.6619006e-02 1.0479455e+00 -5.4989309e+00 -5.5031625e-02 5.1066508e-04 -1.6747382e-03 -1.5873811e-03
135             1.0476786e+00 -5.4955757e+00 -5.5967589e-02 1.0471680e+00 -5.4939024e+00 -5.4380263e-02 5.1050948e-04 -1.6732243e-03 -1.5873260e-03
136             1.0482699e+00 -5.5000201e+00 -5.5899187e-02 1.0477592e+00 -5.4983463e+00 -5.4310969e-02 5.1070169e-04 -1.6738544e-03 -1.5882177e-03
137             1.0473401e+00 -5.4942348e+00 -5.5197448e-02 1.0468297e+00 -5.4925628e+00 -5.3609862e-02 5.1045347e-04 -1.6720774e-03 -1.5875859e-03
138             1.0483274e+00 -5.5008263e+00 -5.5085573e-02 1.0478166e+00 -5.4991531e+00 -5.3496661e-02 5.1075166e-04 -1.6732370e-03 -1.5889115e-03
139             1.0476283e+00 -5.4963288e+00 -5.4372232e-02 1.0471177e+00 -5.4946568e+00 -5.2783464e-02 5.1060137e-04 -1.6719367e-03 -1.5887674e-03
140             1.0481547e+00 -5.5004726e+00 -5.4246183e-02 1.0476440e+00 -5.4988000e+00 -5.2656694e-02 5.1076120e-04 -1.6725711e-03 -1.5894881e-03
141             1.0472916e+00 -5.4951581e+00 -5.3506230e-02 1.0467811e+00 -5.4934871e+00 -5.1917363e-02 5.1054581e-04 -1.6710784e-03 -1.5888666e-03
142             1.0482224e+00 -5.5014957e+00 -5.3371504e-02 1.0477116e+00 -5.4998235e+00 -5.1781487e-02 5.1079788e-04 -1.6721484e-03 -1.5900173e-03
143             1.0475141e+00 -5.4970865e+00 -5.2610117e-02 1.0470035e+00 -5.4954156e+00 -5.1020477e-02 5.1062887e-04 -1.6709016e-03 -1.5896399e-03
144             1.0481142e+00 -5.5016164e+00 -5.2421691e-02 1.0476034e+00 -5.4999448e+00 -5.0831246e-02 5.1079855e-04 -1.6716466e-03 -1.5904453e-03
145             1.0473066e+00 -5.4966697e+00 -5.1652397e-02 1.0467960e+00 -5.4949994e+00 -5.0062527e-02 5.1059213e-04 -1.6702709e-03 -1.5898696e-03
146             1.0481399e+00 -5.5024799e+00 -5.1495645e-02 1.0476291e+00 -5.5008086e+00 -4.9904781e-02 5.1081660e-04 -1.6712916e-03 -1.5908635e-03
147             1.0474154e+00 -5.4980670e+00 -5.0746920e-02 1.0469047e+00 -5.4963970e+00 -4.9156615e-02 5.1062539e-04 -1.6700255e-03 -1.5903045e-03
148             1.0480774e+00 -5.5028796e+00 -5.0536059e-02 1.0475666e+00 -5.5012087e+00 -4.8944845e-02 5.1082150e-04 -1.6709187e-03 -1.5912136e-03
149             1.0472885e+00 -5.4981432e+00 -4.9766833e-02 1.0467779e+00 -5.4964737e+00 -4.8176423e-02 5.1057900e-04 -1.6694580e-03 -1.5904097e-03
150             1.0480268e+00 -5.5033606e+00 -4.9549278e-02 1.0475160e+00 -5.5016900e+00 -4.7957763e-02 5.1083462e-04 -1.6706242e-03 -1.5915150e-03
151             1.0474750e+00 -5.4999773e+00 -4.8867649e-02 1.0469643e+00 -5.4983077e+00 -4.7276371e-02 5.1069630e-04 -1.6696164e-03 -1.5912784e-03
152             1.0478101e+00 -5.5028922e+00 -4.8645137e-02 1.0472993e+00 -5.5012220e+00 -4.7053253e-02 5.1082978e-04 -1.6702496e-03 -1.5918838e-03
153             1.0472502e+00 -5.4995428e+00 -4.7965380e-02 1.0467395e+00 -5.4978735e+00 -4.6373907e-02 5.1068384e-04 -1.6692390e-03 -1.5914737e-03
154             1.0477958e+00 -5.5034794e+00 -4.7749583e-02 1.0472850e+00 -5.5018093e+00 -4.6157182e-02 5.1087205e-04 -1.6700840e-03 -1.5924008e-03
155             1.0473580e+00 -5.5010701e+00 -4.7131376e-02 1.0468473e+00 -5.4994009e+00 -4.5539498e-02 5.1073882e-04 -1.6692093e-03 -1.5918780e-03
156             1.0476568e+00 -5.5033086e+00 -4.6783308e-02 1.0471459e+00 -5.5016388e+00 -4.5190457e-02 5.1088629e-04 -1.6697690e-03 -1.5928513e-03
157             1.0473126e+00 -5.5016809e+00 -4.6248814e-02 1.0468019e+00 -5.5000121e+00 -4.4656596e-02 5.1073128e-04 -1.6688177e-03 -1.5922176e-03
158             1.0476148e+00 -5.5037525e+00 -4.5872337e-02 1.0471039e+00 -5.5020830e+00 -4.4279013e-02 5.1091753e-04 -1.6695273e-03 -1.5933239e-03
159             1.0474197e+00 -5.5031260e+00 -4.5446248e-02 1.0469089e+00 -5.5014572e+00 -4.3853242e-02 5.1081799e-04 -1.6688363e-03 -1.5930060e-03
160             1.0473993e+00 -5.5031765e+00 -4.4992786e-02 1.0468883e+00 -5.5015073e+00 -4.3398956e-02 5.1093842e-04 -1.6692040e-03 -1.5938301e-03
161             1.0472190e+00 -5.5028581e+00 -4.4666078e-02 1.0467082e+00 -5.5011896e+00 -4.3072669e-02 5.1083249e-04 -1.6685319e-03 -1.5934089e-03
162             1.0473513e+00 -5.5035734e+00 -4.4177446e-02 1.0468403e+00 -5.5019044e+00 -4.2583079e-02 5.1098392e-04 -1.6689860e-03 -1.5943667e-03
163             1.0472450e+00 -5.5037371e+00 -4.3893302e-02 1.0467341e+00 -5.5020687e+00 -4.2299240e-02 5.1090198e-04 -1.6684248e-03 -1.5940625e-03
164             1.0472259e+00 -5.5035658e+00 -4.3371907e-02 1.0467149e+00 -5.5018971e+00 -4.1777042e-02 5.1101692e-04 -1.6686937e-03 -1.5948653e-03
165             1.0470745e+00 -5.5035231e+00 -4.3121665e-02 1.0465636e+00 -5.5018549e+00 -4.1527032e-02 5.1093691e-04 -1.6681506e-03 -1.5946333e-03
166             1.0471371e+00 -5.5037949e+00 -4.2578876e-02 1.0466260e+00 -5.5021264e+00 -4.0983463e-02 5.1106724e-04 -1.6684898e-03 -1.5954128e-03
167             1.0469391e+00 -5.5034631e+00 -4.2362357e-02 1.0464281e+00 -5.5017951e+00 -4.0767145e-02 5.1098818e-04 -1.6679607e-03 -1.5952119e-03
168             1.0470833e+00 -5.5042392e+00 -4.1861060e-02 1.0465722e+00 -5.5025709e+00 -4.0265057e-02 5.1112341e-04 -1.6683108e-03 -1.5960027e-03
169             1.0467722e+00 -5.5031196e+00 -4.1637972e-02 1.0462612e+00 -5.5014519e+00 -4.0042145e-02 5.1103947e-04 -1.6677483e-03 -1.5958271e-03
170             1.0470603e+00 -5.5049595e+00 -4.1233105e-02 1.0465491e+00 -5.5032913e+00 -3.9636472e-02 5.1118304e-04 -1.6681523e-03 -1.5966328e-03
171             1.0466154e+00 -5.5028569e+00 -4.0883605e-02 1.0461043e+00 -5.5011894e+00 -3.9287139e-02 5.1109210e-04 -1.6675131e-03 -1.5964656e-03
172             1.0470040e+00 -5.5055097e+00 -4.0514576e-02 1.0464927e+00 -5.5038417e+00 -3.8917295e-02 5.1125129e-04 -1.6680316e-03 -1.5972806e-03
173             1.0464169e+00 -5.5023619e+00 -4.0026881e-02 1.0459058e+00 -5.5006947e+00 -3.8429805e-02 5.1114074e-04 -1.6672245e-03 -1.5970762e-03
174             1.0469357e+00 -5.5060084e+00 -3.9723286e-02 1.0464244e+00 -5.5043405e+00 -3.8125353e-02 5.1131713e-04 -1.6678448e-03 -1.5979326e-03
175             1.0462943e+00 -5.5024474e+00 -3.9169057e-02 1.0457831e+00 -5.5007805e+00 -3.7571333e-02 5.1119913e-04 -1.6669407e-03 -1.5977242e-03
176             1.0468423e+00 -5.5064048e+00 -3.8905700e-02 1.0463309e+00 -5.5047372e+00 -3.7307138e-02 5.1137593e-04 -1.6675685e-03 -1.5985617e-03
177             1.0461403e+00 -5.5023676e+00 -3.8297832e-02 1.0456290e+00 -5.5007011e+00 -3.6699512e-02 5.1124659e-04 -1.6665626e-03 -1.5983203e-03
178             1.0467749e+00 -5.5069774e+00 -3.8084128e-02 1.0462635e+00 -5.5053101e+00 -3.6484947e-02 5.1143967e-04 -1.6672950e-03 -1.5991811e-03
179             1.0460128e+00 -5.5024516e+00 -3.7392812e-02 1.0455015e+00 -5.5007855e+00 -3.5793905e-02 5.1130232e-04 -1.6661927e-03 -1.5989071e-03
180             1.0466938e+00 -5.5074882e+00 -3.7218625e-02 1.0461823e+00 -5.5058212e+00 -3.5618868e-02 5.1150241e-04 -1.6669988e-03 -1.5997570e-03
181             1.0458774e+00 -5.5025174e+00 -3.6466347e-02 1.0453660e+00 -5.5008516e+00 -3.4866873e-02 5.1135371e-04 -1.6658116e-03 -1.5994742e-03
182             1.0466140e+00 -5.5079939e+00 -3.6356247e-02 1.0461024e+00 -5.5063272e+00 -3.4755910e-02 5.1156527e-04 -1.6667343e-03 -1.6003370e-03
183             1.0458111e+00 -5.5031113e+00 -3.5615160e-02 1.0452997e+00 -5.5014458e+00 -3.4015107e-02 5.1141736e-04 -1.6655531e-03 -1.6000526e-03
184             1.0465170e+00 -5.5083328e+00 -3.5466785e-02 1.0460054e+00 -5.5066664e+00 -3.3865884e-02 5.1162380e-04 -1.6664139e-03 -1.6009014e-03
185             1.0456982e+00 -5.5033029e+00 -3.4712052e-02 1.0451867e+00 -5.5016378e+00 -3.3111468e-02 5.1147280e-04 -1.6651820e-03 -1.6005839e-03
186             1.0464147e+00 -5.5086218e+00 -3.4583014e-02 1.0459030e+00 -5.5069558e+00 -3.2981597e-02 5.1168045e-04 -1.6660516e-03 -1.6014170e-03
187             1.0456157e+00 -5.5037522e+00 -3.3847197e-02 1.0451042e+00 -5.5020874e+00 -3.2246115e-02 5.1153127e-04 -1.6648376e-03 -1.6010818e-03
188             1.0463216e+00 -5.5089756e+00 -3.3714481e-02 1.0458099e+00 -5.5073099e+00 -3.2112589e-02 5.1173536e-04 -1.6656933e-03 -1.6018922e-03
189             1.0455173e+00 -5.5040286e+00 -3.2987825e-02 1.0450057e+00 -5.5023641e+00 -3.1386270e-02 5.1158430e-04 -1.6645085e-03 -1.6015550e-03
190             1.0462319e+00 -5.5092897e+00 -3.2897568e-02 1.0457201e+00 -5.5076242e+00 -3.1295174e-02 5.1178942e-04 -1.6654110e-03 -1.6023940e-03
191             1.0454414e+00 -5.5044319e+00 -3.2199125e-02 1.0449298e+00 -5.5027677e+00 -3.0597064e-02 5.1164064e-04 -1.6642560e-03 -1.6020608e-03
192             1.0461340e+00 -5.5095301e+00 -3.2086926e-02 1.0456221e+00 -5.5078650e+00 -3.0484039e-02 5.1184159e-04 -1.6651417e-03 -1.6028866e-03
193             1.0453404e+00 -5.5046201e+00 -3.1391347e-02 1.0448287e+00 -5.5029561e+00 -2.9788812e-02 5.1169178e-04 -1.6639978e-03 -1.6025351e-03
194             1.0460367e+00 -5.5097126e+00 -3.1328127e-02 1.0455248e+00 -5.5080477e+00 -2.9724765e-02 5.1189280e-04 -1.6649078e-03 -1.6033622e-03
195             1.0452608e+00 -5.5049162e+00 -3.0663922e-02 1.0447490e+00 -5.5032524e+00 -2.9060917e-02 5.1174561e-04 -1.6638041e-03 -1.6030049e-03
196             1.0459314e+00 -5.5098533e+00 -3.0547084e-02 1.0454194e+00 -5.5081885e+00 -2.8943256e-02 5.1194289e-04 -1.6647026e-03 -1.6038276e-03
197             1.0451497e+00 -5.5050592e+00 -2.9809899e-02 1.0446379e+00 -5.5033956e+00 -2.8206437e-02 5.1179568e-04 -1.6636098e-03 -1.6034626e-03
198             1.0458162e+00 -5.5100018e+00 -2.9667230e-02 1.0453042e+00 -5.5083373e+00 -2.8062932e-02 5.1199311e-04 -1.6645192e-03 -1.6042977e-03
199             1.0450615e+00 -5.5053804e+00 -2.8967356e-02 1.0445497e+00 -5.5037170e+00 -2.7363421e-02 5.1184904e-04 -1.6634555e-03 -1.6039348e-03
200             1.0457112e+00 -5.5101793e+00 -2.8830834e-02 1.0451991e+00 -5.5085149e+00 -2.7226060e-02 5.1204291e-04 -1.6643416e-03 -1.6047742e-03
