# Moment       
# CofR         : (0.0000000e+00 0.0000000e+00 0.0000000e+00)
#
# Time         	total_x total_y total_z	pressure_x pressure_y pressure_z	viscous_x viscous_y viscous_z
1               9.5331617e-03 -4.9414263e-02 -1.7826454e-02 8.8208477e-03 -4.7062659e-02 -1.5568535e-02 7.1231399e-04 -2.3516043e-03 -2.2579191e-03
2               2.6783274e+00 -1.3422479e+01 -2.9406438e+00 2.6776932e+00 -1.3420486e+01 -2.9386248e+00 6.3416676e-04 -1.9935682e-03 -2.0189537e-03
3               2.4370666e+00 -1.2398767e+01 -1.8293712e+00 2.4365017e+00 -1.2397088e+01 -1.8275639e+00 5.6490223e-04 -1.6787998e-03 -1.8073288e-03
4               1.6452237e+00 -8.6614691e+00 -3.0960924e-01 1.6447105e+00 -8.6600005e+00 -3.0798134e-01 5.1313751e-04 -1.4685527e-03 -1.6278991e-03
5               1.2163834e+00 -6.6757745e+00 3.5499685e-01 1.2159090e+00 -6.6744266e+00 3.5645488e-01 4.7437684e-04 -1.3478893e-03 -1.4580254e-03
6               1.1332282e+00 -6.3458191e+00 3.7545198e-01 1.1327810e+00 -6.3445084e+00 3.7674199e-01 4.4714252e-04 -1.3107449e-03 -1.2900157e-03
7               1.1815519e+00 -6.6266137e+00 1.8237063e-01 1.1811210e+00 -6.6252779e+00 1.8351081e-01 4.3096519e-04 -1.3358484e-03 -1.1401859e-03
8               1.2309986e+00 -6.8950649e+00 1.0849376e-02 1.2305770e+00 -6.8936724e+00 1.1861548e-02 4.2156911e-04 -1.3925297e-03 -1.0121725e-03
9               1.2500727e+00 -7.0030251e+00 -9.8834309e-02 1.2496576e+00 -7.0015630e+00 -9.7934056e-02 4.1515438e-04 -1.4620137e-03 -9.0025357e-04
10              1.2465101e+00 -6.9928741e+00 -1.6549025e-01 1.2460995e+00 -6.9913361e+00 -1.6468661e-01 4.1062254e-04 -1.5380090e-03 -8.0363832e-04
11              1.2366318e+00 -6.9437275e+00 -2.2032137e-01 1.2362237e+00 -6.9421106e+00 -2.1959650e-01 4.0811587e-04 -1.6168568e-03 -7.2486383e-04
12              1.2280840e+00 -6.8943118e+00 -2.6882516e-01 1.2276771e+00 -6.8926200e+00 -2.6816174e-01 4.0697594e-04 -1.6917938e-03 -6.6342439e-04
13              1.2212809e+00 -6.8481819e+00 -3.0459336e-01 1.2208738e+00 -6.8464205e+00 -3.0397556e-01 4.0707568e-04 -1.7613922e-03 -6.1780063e-04
14              1.2150357e+00 -6.8017283e+00 -3.2468707e-01 1.2146274e+00 -6.7999042e+00 -3.2409964e-01 4.0824694e-04 -1.8240780e-03 -5.8742959e-04
15              1.2085297e+00 -6.7536489e+00 -3.3047173e-01 1.2081193e+00 -6.7517695e+00 -3.2990060e-01 4.1044671e-04 -1.8794438e-03 -5.7113173e-04
16              1.2013241e+00 -6.7030550e+00 -3.2513509e-01 1.2009104e+00 -6.7011270e+00 -3.2456691e-01 4.1362926e-04 -1.9280234e-03 -5.6818463e-04
17              1.1933143e+00 -6.6486404e+00 -3.1267006e-01 1.1928966e+00 -6.6466704e+00 -3.1209322e-01 4.1764939e-04 -1.9699780e-03 -5.7683880e-04
18              1.1842590e+00 -6.5879494e+00 -2.9572193e-01 1.1838366e+00 -6.5859440e+00 -2.9512627e-01 4.2234558e-04 -2.0054498e-03 -5.9566174e-04
19              1.1741145e+00 -6.5196016e+00 -2.7713014e-01 1.1736868e+00 -6.5175667e+00 -2.7650701e-01 4.2764615e-04 -2.0349323e-03 -6.2312721e-04
20              1.1632351e+00 -6.4447865e+00 -2.6085373e-01 1.1628016e+00 -6.4427275e+00 -2.6019570e-01 4.3350498e-04 -2.0589397e-03 -6.5803008e-04
21              1.1519544e+00 -6.3658391e+00 -2.5028157e-01 1.1515148e+00 -6.3637620e+00 -2.4958372e-01 4.3961129e-04 -2.0770477e-03 -6.9784808e-04
22              1.1414113e+00 -6.2895276e+00 -2.4724781e-01 1.1409652e+00 -6.2874366e+00 -2.4650502e-01 4.4614639e-04 -2.0910442e-03 -7.4278790e-04
23              1.1307267e+00 -6.2123320e+00 -2.5049295e-01 1.1302742e+00 -6.2102329e+00 -2.4970336e-01 4.5247001e-04 -2.0991094e-03 -7.8959382e-04
24              1.1205613e+00 -6.1387263e+00 -2.5728065e-01 1.1201024e+00 -6.1366226e+00 -2.5644245e-01 4.5888096e-04 -2.1036912e-03 -8.3820615e-04
25              1.1100321e+00 -6.0650038e+00 -2.6469963e-01 1.1095672e+00 -6.0629001e+00 -2.6381306e-01 4.6496304e-04 -2.1036874e-03 -8.8656787e-04
26              1.1001929e+00 -5.9969850e+00 -2.7144930e-01 1.0997219e+00 -5.9948836e+00 -2.7051392e-01 4.7103383e-04 -2.1013711e-03 -9.3538525e-04
27              1.0899003e+00 -5.9284898e+00 -2.7731210e-01 1.0894236e+00 -5.9263940e+00 -2.7633000e-01 4.7666314e-04 -2.0957750e-03 -9.8209456e-04
28              1.0803660e+00 -5.8656012e+00 -2.8266677e-01 1.0798839e+00 -5.8635125e+00 -2.8163882e-01 4.8212428e-04 -2.0887284e-03 -1.0279492e-03
29              1.0707630e+00 -5.8039636e+00 -2.8742697e-01 1.0702759e+00 -5.8018841e+00 -2.8635624e-01 4.8707421e-04 -2.0794745e-03 -1.0707333e-03
30              1.0622129e+00 -5.7492761e+00 -2.9156571e-01 1.0617210e+00 -5.7472060e+00 -2.9045339e-01 4.9191392e-04 -2.0701114e-03 -1.1123135e-03
31              1.0537506e+00 -5.6962121e+00 -2.9509392e-01 1.0532544e+00 -5.6941527e+00 -2.9394304e-01 4.9626363e-04 -2.0593940e-03 -1.1508822e-03
32              1.0459528e+00 -5.6478941e+00 -2.9805217e-01 1.0454524e+00 -5.6458454e+00 -2.9686520e-01 5.0037106e-04 -2.0487819e-03 -1.1869778e-03
33              1.0383890e+00 -5.6014513e+00 -3.0044657e-01 1.0378850e+00 -5.5994142e+00 -2.9922642e-01 5.0398700e-04 -2.0370925e-03 -1.2201506e-03
34              1.0322164e+00 -5.5637691e+00 -3.0244398e-01 1.0317089e+00 -5.5617423e+00 -3.0119258e-01 5.0753324e-04 -2.0267390e-03 -1.2513995e-03
35              1.0257534e+00 -5.5243692e+00 -3.0370826e-01 1.0252429e+00 -5.5223541e+00 -3.0242892e-01 5.1050175e-04 -2.0150576e-03 -1.2793325e-03
36              1.0209310e+00 -5.4951890e+00 -3.0474127e-01 1.0204176e+00 -5.4931843e+00 -3.0343563e-01 5.1338339e-04 -2.0047274e-03 -1.3056363e-03
37              1.0156264e+00 -5.4627468e+00 -3.0498069e-01 1.0151107e+00 -5.4607536e+00 -3.0365210e-01 5.1570207e-04 -1.9931728e-03 -1.3285894e-03
38              1.0121274e+00 -5.4413402e+00 -3.0505439e-01 1.0116094e+00 -5.4393566e+00 -3.0370404e-01 5.1805128e-04 -1.9835842e-03 -1.3503540e-03
39              1.0079421e+00 -5.4153300e+00 -3.0429480e-01 1.0074223e+00 -5.4133576e+00 -3.0292618e-01 5.1976768e-04 -1.9723923e-03 -1.3686178e-03
40              1.0056361e+00 -5.4008845e+00 -3.0343374e-01 1.0051144e+00 -5.3989206e+00 -3.0204750e-01 5.2165657e-04 -1.9639177e-03 -1.3862381e-03
41              1.0024820e+00 -5.3807740e+00 -3.0172249e-01 1.0019592e+00 -5.3788207e+00 -3.0032242e-01 5.2281676e-04 -1.9533055e-03 -1.4000719e-03
42              1.0012053e+00 -5.3721519e+00 -2.9997591e-01 1.0006811e+00 -5.3702061e+00 -2.9856185e-01 5.2426538e-04 -1.9458815e-03 -1.4140546e-03
43              9.9905044e-01 -5.3577475e+00 -2.9749119e-01 9.9852541e-01 -5.3558110e+00 -2.9606658e-01 5.2503174e-04 -1.9364961e-03 -1.4246085e-03
44              9.9843235e-01 -5.3528284e+00 -2.9489432e-01 9.9790643e-01 -5.3508990e+00 -2.9345969e-01 5.2591982e-04 -1.9293788e-03 -1.4346281e-03
45              9.9701427e-01 -5.3426718e+00 -2.9148837e-01 9.9648809e-01 -5.3407513e+00 -2.9004700e-01 5.2617587e-04 -1.9204956e-03 -1.4413679e-03
46              9.9730962e-01 -5.3428690e+00 -2.8809276e-01 9.9678287e-01 -5.3409544e+00 -2.8664410e-01 5.2675059e-04 -1.9146119e-03 -1.4486622e-03
47              9.9676453e-01 -5.3377939e+00 -2.8400249e-01 9.9623780e-01 -5.3358869e+00 -2.8254934e-01 5.2673603e-04 -1.9069818e-03 -1.4531550e-03
48              9.9734020e-01 -5.3398191e+00 -2.7991540e-01 9.9681338e-01 -5.3379179e+00 -2.7845806e-01 5.2682357e-04 -1.9011906e-03 -1.4573394e-03
49              9.9729524e-01 -5.3377464e+00 -2.7538286e-01 9.9676884e-01 -5.3358525e+00 -2.7392396e-01 5.2640257e-04 -1.8939654e-03 -1.4588978e-03
50              9.9879646e-01 -5.3447620e+00 -2.7090257e-01 9.9827019e-01 -5.3428729e+00 -2.6944111e-01 5.2626453e-04 -1.8890330e-03 -1.4614615e-03
51              9.9950300e-01 -5.3469241e+00 -2.6602748e-01 9.9897724e-01 -5.3450408e+00 -2.6456564e-01 5.2575889e-04 -1.8833455e-03 -1.4618424e-03
52              1.0011175e+00 -5.3546542e+00 -2.6135804e-01 1.0005921e+00 -5.3527750e+00 -2.5989567e-01 5.2537281e-04 -1.8791687e-03 -1.4623636e-03
53              1.0019286e+00 -5.3573362e+00 -2.5634046e-01 1.0014041e+00 -5.3554630e+00 -2.5487975e-01 5.2448858e-04 -1.8731984e-03 -1.4607027e-03
54              1.0043683e+00 -5.3695146e+00 -2.5155768e-01 1.0038442e+00 -5.3676445e+00 -2.5009714e-01 5.2404601e-04 -1.8700455e-03 -1.4605410e-03
55              1.0059430e+00 -5.3764959e+00 -2.4661794e-01 1.0054198e+00 -5.3746309e+00 -2.4515944e-01 5.2312827e-04 -1.8650711e-03 -1.4585071e-03
56              1.0082764e+00 -5.3880640e+00 -2.4182991e-01 1.0077540e+00 -5.3862021e+00 -2.4037278e-01 5.2245609e-04 -1.8618731e-03 -1.4571350e-03
57              1.0099779e+00 -5.3957460e+00 -2.3696019e-01 1.0094565e+00 -5.3938888e+00 -2.3550607e-01 5.2139943e-04 -1.8571545e-03 -1.4541224e-03
58              1.0128647e+00 -5.4101434e+00 -2.3230265e-01 1.0123440e+00 -5.4082887e+00 -2.3084983e-01 5.2076782e-04 -1.8547567e-03 -1.4528174e-03
59              1.0148502e+00 -5.4191058e+00 -2.2773899e-01 1.0143304e+00 -5.4172552e+00 -2.2628894e-01 5.1973297e-04 -1.8505896e-03 -1.4500413e-03
60              1.0174819e+00 -5.4317854e+00 -2.2346246e-01 1.0169629e+00 -5.4299375e+00 -2.2201422e-01 5.1896945e-04 -1.8479778e-03 -1.4482397e-03
61              1.0194634e+00 -5.4406206e+00 -2.1911736e-01 1.0189455e+00 -5.4387766e+00 -2.1767224e-01 5.1788693e-04 -1.8439497e-03 -1.4451238e-03
62              1.0225065e+00 -5.4553407e+00 -2.1495205e-01 1.0219893e+00 -5.4534985e+00 -2.1350813e-01 5.1726712e-04 -1.8421755e-03 -1.4439197e-03
63              1.0245323e+00 -5.4640274e+00 -2.1081700e-01 1.0240160e+00 -5.4621889e+00 -2.0937542e-01 5.1626365e-04 -1.8384762e-03 -1.4415828e-03
64              1.0271374e+00 -5.4760124e+00 -2.0704526e-01 1.0266218e+00 -5.4741760e+00 -2.0560487e-01 5.1557870e-04 -1.8363511e-03 -1.4403895e-03
65              1.0290483e+00 -5.4838106e+00 -2.0346269e-01 1.0285337e+00 -5.4819780e+00 -2.0202452e-01 5.1458126e-04 -1.8325599e-03 -1.4381726e-03
66              1.0319480e+00 -5.4970299e+00 -2.0014363e-01 1.0314340e+00 -5.4951990e+00 -1.9870568e-01 5.1405942e-04 -1.8308970e-03 -1.4379504e-03
67              1.0338088e+00 -5.5041317e+00 -1.9688004e-01 1.0332956e+00 -5.5023044e+00 -1.9544335e-01 5.1318165e-04 -1.8272978e-03 -1.4366898e-03
68              1.0361717e+00 -5.5140311e+00 -1.9387826e-01 1.0356590e+00 -5.5122059e+00 -1.9244152e-01 5.1262703e-04 -1.8251755e-03 -1.4367381e-03
69              1.0377869e+00 -5.5193887e+00 -1.9104200e-01 1.0372751e+00 -5.5175673e+00 -1.8960625e-01 5.1178324e-04 -1.8214775e-03 -1.4357567e-03
70              1.0403742e+00 -5.5301446e+00 -1.8846146e-01 1.0398628e+00 -5.5283247e+00 -1.8702466e-01 5.1142245e-04 -1.8199179e-03 -1.4367995e-03
71              1.0418694e+00 -5.5342899e+00 -1.8602129e-01 1.0413587e+00 -5.5324737e+00 -1.8458441e-01 5.1070474e-04 -1.8162882e-03 -1.4368800e-03
72              1.0439025e+00 -5.5416097e+00 -1.8373605e-01 1.0433921e+00 -5.5397954e+00 -1.8229769e-01 5.1033760e-04 -1.8142687e-03 -1.4383644e-03
73              1.0451209e+00 -5.5439478e+00 -1.8170197e-01 1.0446113e+00 -5.5421373e+00 -1.8026333e-01 5.0965175e-04 -1.8104706e-03 -1.4386429e-03
74              1.0473346e+00 -5.5517633e+00 -1.7999176e-01 1.0468251e+00 -5.5499546e+00 -1.7855079e-01 5.0944260e-04 -1.8087469e-03 -1.4409740e-03
75              1.0484735e+00 -5.5531767e+00 -1.7835188e-01 1.0479646e+00 -5.5513714e+00 -1.7690952e-01 5.0892235e-04 -1.8052890e-03 -1.4423639e-03
76              1.0501297e+00 -5.5576741e+00 -1.7703800e-01 1.0496210e+00 -5.5558709e+00 -1.7559312e-01 5.0870425e-04 -1.8031501e-03 -1.4448797e-03
77              1.0508851e+00 -5.5567377e+00 -1.7568913e-01 1.0503770e+00 -5.5549384e+00 -1.7424290e-01 5.0818422e-04 -1.7993679e-03 -1.4462295e-03
78              1.0527067e+00 -5.5619283e+00 -1.7460843e-01 1.0521986e+00 -5.5601306e+00 -1.7315888e-01 5.0814573e-04 -1.7977512e-03 -1.4495532e-03
79              1.0533373e+00 -5.5599278e+00 -1.7338440e-01 1.0528296e+00 -5.5581336e+00 -1.7193268e-01 5.0775098e-04 -1.7942078e-03 -1.4517158e-03
80              1.0546039e+00 -5.5619443e+00 -1.7242837e-01 1.0540962e+00 -5.5601520e+00 -1.7097337e-01 5.0769924e-04 -1.7922984e-03 -1.4550041e-03
81              1.0548713e+00 -5.5579244e+00 -1.7139048e-01 1.0543640e+00 -5.5561360e+00 -1.6993354e-01 5.0730327e-04 -1.7884752e-03 -1.4569367e-03
82              1.0562878e+00 -5.5609462e+00 -1.7053505e-01 1.0557804e+00 -5.5591594e+00 -1.6907415e-01 5.0738811e-04 -1.7868044e-03 -1.4609059e-03
83              1.0564822e+00 -5.5565584e+00 -1.6940305e-01 1.0559751e+00 -5.5547750e+00 -1.6793938e-01 5.0715136e-04 -1.7833543e-03 -1.4636675e-03
84              1.0574081e+00 -5.5570529e+00 -1.6855437e-01 1.0569009e+00 -5.5552713e+00 -1.6708684e-01 5.0725449e-04 -1.7815580e-03 -1.4675222e-03
85              1.0570857e+00 -5.5499315e+00 -1.6725182e-01 1.0565787e+00 -5.5481539e+00 -1.6578177e-01 5.0697176e-04 -1.7775660e-03 -1.4700504e-03
86              1.0581681e+00 -5.5514965e+00 -1.6627822e-01 1.0576608e+00 -5.5497203e+00 -1.6480363e-01 5.0723781e-04 -1.7762361e-03 -1.4745854e-03
87              1.0578629e+00 -5.5445882e+00 -1.6480154e-01 1.0573558e+00 -5.5428157e+00 -1.6332371e-01 5.0708075e-04 -1.7725467e-03 -1.4778244e-03
88              1.0584577e+00 -5.5439197e+00 -1.6349486e-01 1.0579504e+00 -5.5421488e+00 -1.6201255e-01 5.0730516e-04 -1.7708274e-03 -1.4823097e-03
89              1.0577847e+00 -5.5352211e+00 -1.6169192e-01 1.0572776e+00 -5.5334542e+00 -1.6020653e-01 5.0713464e-04 -1.7668639e-03 -1.4853945e-03
90              1.0586044e+00 -5.5360443e+00 -1.6035721e-01 1.0580969e+00 -5.5342787e+00 -1.5886669e-01 5.0751306e-04 -1.7656224e-03 -1.4905148e-03
91              1.0579208e+00 -5.5276498e+00 -1.5832348e-01 1.0574133e+00 -5.5258879e+00 -1.5682926e-01 5.0745554e-04 -1.7619172e-03 -1.4942185e-03
92              1.0582331e+00 -5.5264877e+00 -1.5649377e-01 1.0577253e+00 -5.5247274e+00 -1.5499475e-01 5.0777528e-04 -1.7602713e-03 -1.4990221e-03
93              1.0572049e+00 -5.5167751e+00 -1.5390761e-01 1.0566973e+00 -5.5150188e+00 -1.5240528e-01 5.0767663e-04 -1.7562814e-03 -1.5023219e-03
94              1.0577979e+00 -5.5175828e+00 -1.5175492e-01 1.0572897e+00 -5.5158277e+00 -1.5024722e-01 5.0814388e-04 -1.7551823e-03 -1.5076969e-03
95              1.0568575e+00 -5.5086638e+00 -1.4921153e-01 1.0563493e+00 -5.5069123e+00 -1.4770001e-01 5.0814416e-04 -1.7515102e-03 -1.5115237e-03
96              1.0570093e+00 -5.5077675e+00 -1.4703302e-01 1.0565008e+00 -5.5060174e+00 -1.4551661e-01 5.0853094e-04 -1.7500885e-03 -1.5164191e-03
97              1.0558138e+00 -5.4981598e+00 -1.4429249e-01 1.0553053e+00 -5.4964137e+00 -1.4277289e-01 5.0846885e-04 -1.7460641e-03 -1.5196068e-03
98              1.0563307e+00 -5.4997304e+00 -1.4200446e-01 1.0558217e+00 -5.4979853e+00 -1.4047961e-01 5.0898631e-04 -1.7450876e-03 -1.5248538e-03
99              1.0552986e+00 -5.4915668e+00 -1.3911741e-01 1.0547896e+00 -5.4898255e+00 -1.3758902e-01 5.0901442e-04 -1.7413165e-03 -1.5283907e-03
100             1.0553876e+00 -5.4917193e+00 -1.3664800e-01 1.0548782e+00 -5.4899797e+00 -1.3511508e-01 5.0941989e-04 -1.7396544e-03 -1.5329269e-03
101             1.0541600e+00 -5.4835764e+00 -1.3358302e-01 1.0536506e+00 -5.4818410e+00 -1.3204739e-01 5.0936410e-04 -1.7353929e-03 -1.5356306e-03
102             1.0546459e+00 -5.4867895e+00 -1.3098872e-01 1.0541360e+00 -5.4850554e+00 -1.2944844e-01 5.0987748e-04 -1.7340681e-03 -1.5402818e-03
103             1.0536292e+00 -5.4806521e+00 -1.2777726e-01 1.0531193e+00 -5.4789220e+00 -1.2623429e-01 5.0989496e-04 -1.7300785e-03 -1.5429739e-03
104             1.0536963e+00 -5.4825677e+00 -1.2482824e-01 1.0531860e+00 -5.4808394e+00 -1.2328155e-01 5.1028801e-04 -1.7283639e-03 -1.5466858e-03
105             1.0525018e+00 -5.4766991e+00 -1.2091089e-01 1.0519916e+00 -5.4749748e+00 -1.1936223e-01 5.1022673e-04 -1.7242519e-03 -1.5486571e-03
106             1.0529739e+00 -5.4818939e+00 -1.1713435e-01 1.0524632e+00 -5.4801707e+00 -1.1558143e-01 5.1074277e-04 -1.7231962e-03 -1.5529134e-03
107             1.0520129e+00 -5.4783875e+00 -1.1242003e-01 1.0515021e+00 -5.4766680e+00 -1.1086461e-01 5.1077342e-04 -1.7195851e-03 -1.5554214e-03
108             1.0520216e+00 -5.4819065e+00 -1.0799623e-01 1.0515105e+00 -5.4801883e+00 -1.0643713e-01 5.1116591e-04 -1.7181648e-03 -1.5590959e-03
109             1.0509209e+00 -5.4783244e+00 -1.0295209e-01 1.0504098e+00 -5.4766099e+00 -1.0139108e-01 5.1111580e-04 -1.7144901e-03 -1.5610037e-03
110             1.0513515e+00 -5.4844929e+00 -9.8215002e-02 1.0508398e+00 -5.4827791e+00 -9.6649820e-02 5.1162331e-04 -1.7137932e-03 -1.5651816e-03
111             1.0505246e+00 -5.4827942e+00 -9.3054423e-02 1.0500129e+00 -5.4810836e+00 -9.1486860e-02 5.1165780e-04 -1.7106302e-03 -1.5675633e-03
112             1.0504995e+00 -5.4866408e+00 -8.8316075e-02 1.0499874e+00 -5.4849314e+00 -8.6745156e-02 5.1202843e-04 -1.7094295e-03 -1.5709198e-03
113             1.0495649e+00 -5.4846006e+00 -8.3340196e-02 1.0490529e+00 -5.4828945e+00 -8.1767874e-02 5.1196252e-04 -1.7060506e-03 -1.5723220e-03
114             1.0499619e+00 -5.4904964e+00 -7.8818535e-02 1.0494494e+00 -5.4887908e+00 -7.7242627e-02 5.1244047e-04 -1.7055822e-03 -1.5759080e-03
115             1.0493447e+00 -5.4900867e+00 -7.4334748e-02 1.0488323e+00 -5.4883838e+00 -7.2757061e-02 5.1246343e-04 -1.7029217e-03 -1.5776868e-03
116             1.0492814e+00 -5.4930821e+00 -7.0400285e-02 1.0487686e+00 -5.4913800e+00 -6.8819798e-02 5.1279519e-04 -1.7020817e-03 -1.5804869e-03
117             1.0485959e+00 -5.4920356e+00 -6.6797490e-02 1.0480832e+00 -5.4903363e+00 -6.5215868e-02 5.1274303e-04 -1.6993431e-03 -1.5816230e-03
118             1.0490043e+00 -5.4967806e+00 -6.3771255e-02 1.0484912e+00 -5.4950818e+00 -6.2186644e-02 5.1315565e-04 -1.6988350e-03 -1.5846106e-03
119             1.0484389e+00 -5.4954947e+00 -6.1141001e-02 1.0479257e+00 -5.4937986e+00 -5.9555130e-02 5.1313508e-04 -1.6961510e-03 -1.5858708e-03
120             1.0486463e+00 -5.4987027e+00 -5.9064071e-02 1.0481329e+00 -5.4970074e+00 -5.7476016e-02 5.1343074e-04 -1.6953132e-03 -1.5880553e-03
121             1.0478761e+00 -5.4956652e+00 -5.7121536e-02 1.0473628e+00 -5.4939725e+00 -5.5532914e-02 5.1332708e-04 -1.6927261e-03 -1.5886225e-03
122             1.0484741e+00 -5.5003836e+00 -5.5753603e-02 1.0479604e+00 -5.4986909e+00 -5.4162570e-02 5.1369915e-04 -1.6926854e-03 -1.5910328e-03
123             1.0477763e+00 -5.4968477e+00 -5.4495043e-02 1.0472626e+00 -5.4951571e+00 -5.2903134e-02 5.1364775e-04 -1.6906448e-03 -1.5919092e-03
124             1.0481406e+00 -5.4999721e+00 -5.3829004e-02 1.0476266e+00 -5.4982816e+00 -5.2235216e-02 5.1391529e-04 -1.6905273e-03 -1.5937881e-03
125             1.0472473e+00 -5.4948298e+00 -5.2961738e-02 1.0467335e+00 -5.4931414e+00 -5.1367494e-02 5.1379268e-04 -1.6884622e-03 -1.5942448e-03
126             1.0479562e+00 -5.4996570e+00 -5.2633494e-02 1.0474421e+00 -5.4979682e+00 -5.1037274e-02 5.1411150e-04 -1.6887973e-03 -1.5962193e-03
127             1.0471207e+00 -5.4944820e+00 -5.1928619e-02 1.0466067e+00 -5.4927951e+00 -5.0332028e-02 5.1399410e-04 -1.6869087e-03 -1.5965908e-03
128             1.0477269e+00 -5.4987949e+00 -5.1834522e-02 1.0472127e+00 -5.4971076e+00 -5.0236294e-02 5.1426043e-04 -1.6872623e-03 -1.5982288e-03
129             1.0467185e+00 -5.4924333e+00 -5.1224326e-02 1.0462045e+00 -5.4907483e+00 -4.9626308e-02 5.1402763e-04 -1.6850636e-03 -1.5980179e-03
130             1.0475656e+00 -5.4981223e+00 -5.1234860e-02 1.0470512e+00 -5.4964363e+00 -4.9635043e-02 5.1438796e-04 -1.6860561e-03 -1.5998166e-03
131             1.0468314e+00 -5.4931427e+00 -5.0714219e-02 1.0463171e+00 -5.4914582e+00 -4.9113976e-02 5.1427883e-04 -1.6844893e-03 -1.6002422e-03
132             1.0471980e+00 -5.4961832e+00 -5.0762190e-02 1.0466836e+00 -5.4944984e+00 -4.9161068e-02 5.1445120e-04 -1.6848221e-03 -1.6011217e-03
133             1.0465325e+00 -5.4915684e+00 -5.0222464e-02 1.0460181e+00 -5.4898851e+00 -4.8620975e-02 5.1434767e-04 -1.6833675e-03 -1.6014886e-03
134             1.0469273e+00 -5.4948634e+00 -5.0297299e-02 1.0464128e+00 -5.4931797e+00 -4.8695395e-02 5.1448974e-04 -1.6837207e-03 -1.6019042e-03
135             1.0465740e+00 -5.4920272e+00 -4.9747346e-02 1.0460596e+00 -5.4903446e+00 -4.8144813e-02 5.1444505e-04 -1.6826413e-03 -1.6025326e-03
136             1.0469270e+00 -5.4950520e+00 -4.9741578e-02 1.0464124e+00 -5.4933689e+00 -4.8138528e-02 5.1459505e-04 -1.6831120e-03 -1.6030505e-03
137             1.0464861e+00 -5.4917638e+00 -4.9146722e-02 1.0459716e+00 -5.4900820e+00 -4.7543256e-02 5.1449729e-04 -1.6818961e-03 -1.6034659e-03
138             1.0467804e+00 -5.4945894e+00 -4.9132802e-02 1.0462657e+00 -5.4929070e+00 -4.7529049e-02 5.1462201e-04 -1.6823660e-03 -1.6037536e-03
139             1.0464554e+00 -5.4920674e+00 -4.8530369e-02 1.0459408e+00 -5.4903860e+00 -4.6926168e-02 5.1454788e-04 -1.6813421e-03 -1.6042013e-03
140             1.0466905e+00 -5.4945585e+00 -4.8443478e-02 1.0461759e+00 -5.4928769e+00 -4.6839202e-02 5.1461053e-04 -1.6815804e-03 -1.6042761e-03
141             1.0464498e+00 -5.4925120e+00 -4.7758544e-02 1.0459353e+00 -5.4908312e+00 -4.6153762e-02 5.1458404e-04 -1.6808308e-03 -1.6047823e-03
142             1.0467587e+00 -5.4954510e+00 -4.7656220e-02 1.0462440e+00 -5.4937698e+00 -4.6051031e-02 5.1468642e-04 -1.6812643e-03 -1.6051886e-03
143             1.0463436e+00 -5.4926152e+00 -4.6983026e-02 1.0458290e+00 -5.4909348e+00 -4.5377700e-02 5.1460242e-04 -1.6803558e-03 -1.6053264e-03
144             1.0464518e+00 -5.4944364e+00 -4.6825217e-02 1.0459372e+00 -5.4927560e+00 -4.5220059e-02 5.1460500e-04 -1.6804102e-03 -1.6051577e-03
145             1.0464321e+00 -5.4937269e+00 -4.6101337e-02 1.0459174e+00 -5.4920469e+00 -4.4495591e-02 5.1463691e-04 -1.6800209e-03 -1.6057459e-03
146             1.0467440e+00 -5.4966120e+00 -4.5947187e-02 1.0462293e+00 -5.4949315e+00 -4.4340990e-02 5.1474382e-04 -1.6805127e-03 -1.6061971e-03
147             1.0462948e+00 -5.4937784e+00 -4.5258034e-02 1.0457802e+00 -5.4920988e+00 -4.3651911e-02 5.1463756e-04 -1.6796067e-03 -1.6061232e-03
148             1.0464420e+00 -5.4956635e+00 -4.5032298e-02 1.0459273e+00 -5.4939836e+00 -4.3425866e-02 5.1471418e-04 -1.6799670e-03 -1.6064315e-03
149             1.0463207e+00 -5.4946292e+00 -4.4373754e-02 1.0458060e+00 -5.4929498e+00 -4.2767145e-02 5.1467469e-04 -1.6793708e-03 -1.6066090e-03
150             1.0463935e+00 -5.4960336e+00 -4.4140874e-02 1.0458788e+00 -5.4943540e+00 -4.2534103e-02 5.1473432e-04 -1.6796842e-03 -1.6067716e-03
151             1.0464061e+00 -5.4960092e+00 -4.3543675e-02 1.0458914e+00 -5.4943300e+00 -4.1936656e-02 5.1470590e-04 -1.6792000e-03 -1.6070190e-03
152             1.0462424e+00 -5.4957805e+00 -4.3179925e-02 1.0457277e+00 -5.4941014e+00 -4.1572898e-02 5.1470540e-04 -1.6791814e-03 -1.6070268e-03
153             1.0464680e+00 -5.4971628e+00 -4.2655974e-02 1.0459533e+00 -5.4954839e+00 -4.1048543e-02 5.1472745e-04 -1.6789441e-03 -1.6074314e-03
154             1.0462864e+00 -5.4966588e+00 -4.2245082e-02 1.0457716e+00 -5.4949797e+00 -4.0637332e-02 5.1477037e-04 -1.6790745e-03 -1.6077493e-03
155             1.0463816e+00 -5.4976034e+00 -4.1808186e-02 1.0458669e+00 -5.4959247e+00 -4.0200289e-02 5.1474903e-04 -1.6787147e-03 -1.6078968e-03
156             1.0459764e+00 -5.4956337e+00 -4.1312770e-02 1.0454617e+00 -5.4939552e+00 -3.9704872e-02 5.1473385e-04 -1.6785485e-03 -1.6078980e-03
157             1.0464476e+00 -5.4987790e+00 -4.0969669e-02 1.0459329e+00 -5.4971005e+00 -3.9361288e-02 5.1479198e-04 -1.6785571e-03 -1.6083812e-03
158             1.0460745e+00 -5.4968499e+00 -4.0437038e-02 1.0455597e+00 -5.4951715e+00 -3.8828595e-02 5.1479339e-04 -1.6784272e-03 -1.6084437e-03
159             1.0463530e+00 -5.4990169e+00 -4.0143172e-02 1.0458382e+00 -5.4973386e+00 -3.8534335e-02 5.1481351e-04 -1.6782768e-03 -1.6088376e-03
160             1.0458850e+00 -5.4965370e+00 -3.9602668e-02 1.0453703e+00 -5.4948592e+00 -3.7994076e-02 5.1475108e-04 -1.6778703e-03 -1.6085918e-03
161             1.0462442e+00 -5.4991349e+00 -3.9302612e-02 1.0457294e+00 -5.4974568e+00 -3.7693364e-02 5.1484314e-04 -1.6780406e-03 -1.6092488e-03
162             1.0460437e+00 -5.4980931e+00 -3.8796662e-02 1.0455288e+00 -5.4964150e+00 -3.7187058e-02 5.1489241e-04 -1.6780710e-03 -1.6096032e-03
163             1.0459538e+00 -5.4982318e+00 -3.8542182e-02 1.0454390e+00 -5.4965541e+00 -3.6932467e-02 5.1485387e-04 -1.6777074e-03 -1.6097144e-03
164             1.0458679e+00 -5.4979744e+00 -3.8067024e-02 1.0453530e+00 -5.4962966e+00 -3.6456972e-02 5.1491449e-04 -1.6777958e-03 -1.6100516e-03
165             1.0458425e+00 -5.4982543e+00 -3.7769704e-02 1.0453275e+00 -5.4965767e+00 -3.6159384e-02 5.1491239e-04 -1.6775665e-03 -1.6103202e-03
166             1.0458450e+00 -5.4987902e+00 -3.7382942e-02 1.0453300e+00 -5.4971125e+00 -3.5772475e-02 5.1496863e-04 -1.6776936e-03 -1.6104671e-03
167             1.0457762e+00 -5.4984303e+00 -3.6971814e-02 1.0452613e+00 -5.4967529e+00 -3.5360875e-02 5.1496360e-04 -1.6773579e-03 -1.6109393e-03
168             1.0458311e+00 -5.4994520e+00 -3.6661791e-02 1.0453161e+00 -5.4977745e+00 -3.5050774e-02 5.1501769e-04 -1.6775281e-03 -1.6110168e-03
169             1.0456258e+00 -5.4981209e+00 -3.6194799e-02 1.0451108e+00 -5.4964438e+00 -3.4583291e-02 5.1500166e-04 -1.6770789e-03 -1.6115081e-03
170             1.0456845e+00 -5.4993697e+00 -3.5984092e-02 1.0451695e+00 -5.4976926e+00 -3.4372709e-02 5.1501408e-04 -1.6771011e-03 -1.6113837e-03
171             1.0455275e+00 -5.4981873e+00 -3.5438699e-02 1.0450125e+00 -5.4965105e+00 -3.3826643e-02 5.1504849e-04 -1.6768154e-03 -1.6120556e-03
172             1.0457946e+00 -5.5007256e+00 -3.5267193e-02 1.0452794e+00 -5.4990484e+00 -3.3654691e-02 5.1515478e-04 -1.6772241e-03 -1.6125018e-03
173             1.0452361e+00 -5.4972885e+00 -3.4648188e-02 1.0447210e+00 -5.4956121e+00 -3.3035555e-02 5.1507573e-04 -1.6764190e-03 -1.6126329e-03
174             1.0455202e+00 -5.5001547e+00 -3.4506340e-02 1.0450050e+00 -5.4984779e+00 -3.2893404e-02 5.1518147e-04 -1.6768728e-03 -1.6129351e-03
175             1.0451810e+00 -5.4977013e+00 -3.3825421e-02 1.0446658e+00 -5.4960251e+00 -3.2212092e-02 5.1515107e-04 -1.6761960e-03 -1.6133291e-03
176             1.0454931e+00 -5.5008718e+00 -3.3725100e-02 1.0449779e+00 -5.4991951e+00 -3.2111622e-02 5.1525414e-04 -1.6766904e-03 -1.6134780e-03
177             1.0450996e+00 -5.4980837e+00 -3.3009935e-02 1.0445844e+00 -5.4964078e+00 -3.1396028e-02 5.1520396e-04 -1.6758686e-03 -1.6139063e-03
178             1.0453585e+00 -5.5009957e+00 -3.2892236e-02 1.0448432e+00 -5.4993195e+00 -3.1278359e-02 5.1526558e-04 -1.6761831e-03 -1.6138771e-03
179             1.0450708e+00 -5.4988069e+00 -3.2153223e-02 1.0445556e+00 -5.4971313e+00 -3.0538758e-02 5.1526656e-04 -1.6755938e-03 -1.6144646e-03
180             1.0454133e+00 -5.5021001e+00 -3.2004021e-02 1.0448979e+00 -5.5004240e+00 -3.0389159e-02 5.1538823e-04 -1.6761267e-03 -1.6148620e-03
181             1.0448322e+00 -5.4983358e+00 -3.1253620e-02 1.0443169e+00 -5.4966606e+00 -2.9638576e-02 5.1530681e-04 -1.6751992e-03 -1.6150433e-03
182             1.0450449e+00 -5.5010039e+00 -3.1136910e-02 1.0445295e+00 -5.4993285e+00 -2.9521955e-02 5.1535668e-04 -1.6754728e-03 -1.6149550e-03
183             1.0448927e+00 -5.4995522e+00 -3.0411803e-02 1.0443773e+00 -5.4978772e+00 -2.8796174e-02 5.1538783e-04 -1.6750101e-03 -1.6156292e-03
184             1.0452628e+00 -5.5029941e+00 -3.0278209e-02 1.0447473e+00 -5.5013185e+00 -2.8662201e-02 5.1551730e-04 -1.6755626e-03 -1.6160078e-03
185             1.0446569e+00 -5.4991092e+00 -2.9534962e-02 1.0441415e+00 -5.4974346e+00 -2.7918847e-02 5.1542234e-04 -1.6745519e-03 -1.6161151e-03
186             1.0448983e+00 -5.5019204e+00 -2.9403463e-02 1.0443828e+00 -5.5002455e+00 -2.7787326e-02 5.1549891e-04 -1.6749044e-03 -1.6161373e-03
187             1.0446943e+00 -5.5002085e+00 -2.8691910e-02 1.0441788e+00 -5.4985342e+00 -2.7075269e-02 5.1549981e-04 -1.6743109e-03 -1.6166406e-03
188             1.0449991e+00 -5.5032984e+00 -2.8544997e-02 1.0444835e+00 -5.5016236e+00 -2.6928163e-02 5.1560560e-04 -1.6748018e-03 -1.6168344e-03
189             1.0445390e+00 -5.5001906e+00 -2.7826113e-02 1.0440234e+00 -5.4985166e+00 -2.6208996e-02 5.1554022e-04 -1.6739507e-03 -1.6171170e-03
190             1.0447606e+00 -5.5028339e+00 -2.7715540e-02 1.0442450e+00 -5.5011596e+00 -2.6098346e-02 5.1561276e-04 -1.6743130e-03 -1.6171934e-03
191             1.0445299e+00 -5.5009738e+00 -2.7024236e-02 1.0440143e+00 -5.4993001e+00 -2.5406594e-02 5.1560098e-04 -1.6737169e-03 -1.6176419e-03
192             1.0447705e+00 -5.5036713e+00 -2.6879376e-02 1.0442549e+00 -5.5019972e+00 -2.5261634e-02 5.1568258e-04 -1.6741267e-03 -1.6177419e-03
193             1.0444050e+00 -5.5010560e+00 -2.6186840e-02 1.0438894e+00 -5.4993825e+00 -2.4568747e-02 5.1564511e-04 -1.6734313e-03 -1.6180936e-03
194             1.0445721e+00 -5.5033338e+00 -2.6102623e-02 1.0440564e+00 -5.5016601e+00 -2.4484665e-02 5.1566831e-04 -1.6736171e-03 -1.6179574e-03
195             1.0443388e+00 -5.5014655e+00 -2.5408733e-02 1.0438231e+00 -5.4997922e+00 -2.3790246e-02 5.1569921e-04 -1.6732517e-03 -1.6184866e-03
196             1.0446601e+00 -5.5045246e+00 -2.5272904e-02 1.0441443e+00 -5.5028508e+00 -2.3653967e-02 5.1581939e-04 -1.6738195e-03 -1.6189369e-03
197             1.0440677e+00 -5.5007958e+00 -2.4516055e-02 1.0435520e+00 -5.4991229e+00 -2.2897148e-02 5.1572685e-04 -1.6729537e-03 -1.6189067e-03
198             1.0443757e+00 -5.5038230e+00 -2.4356028e-02 1.0438599e+00 -5.5021494e+00 -2.2736720e-02 5.1584565e-04 -1.6735340e-03 -1.6193087e-03
199             1.0440305e+00 -5.5014103e+00 -2.3682987e-02 1.0435147e+00 -5.4997374e+00 -2.2063517e-02 5.1580320e-04 -1.6728955e-03 -1.6194703e-03
200             1.0442629e+00 -5.5039640e+00 -2.3520530e-02 1.0437470e+00 -5.5022907e+00 -2.1900890e-02 5.1589805e-04 -1.6733902e-03 -1.6196403e-03
201             1.0439887e+00 -5.5020111e+00 -2.2699136e-02 1.0434728e+00 -5.5003383e+00 -2.1079143e-02 5.1586136e-04 -1.6727425e-03 -1.6199931e-03