36.0 0.7404263
37.0 0.1649444
38.0 0.01031007
39.0 0.001829293
40.0 5.989382E-4
41.0 2.854267E-4
42.0 1.739225E-4
43.0 1.254996E-4
44.0 1.018123E-4
45.0 8.941326E-5
46.0 8.26015E-5
47.0 7.86161E-5
48.0 7.593976E-5
49.0 7.375539E-5
50.0 7.164679E-5
51.0 6.943746E-5
52.0 6.714056E-5
53.0 6.48131E-5
54.0 6.25334E-5
55.0 6.03726E-5
56.0 5.837725E-5
57.0 5.654942E-5
58.0 5.490695E-5
59.0 5.345582E-5
60.0 5.216324E-5
61.0 5.096096E-5
62.0 4.980965E-5
63.0 4.868477E-5
64.0 4.757923E-5
65.0 4.647628E-5
66.0 4.536077E-5
67.0 4.42363E-5
68.0 4.311722E-5
69.0 4.198683E-5
70.0 4.083292E-5
71.0 3.967289E-5
72.0 3.850969E-5
73.0 3.734069E-5
74.0 3.616727E-5
75.0 3.500919E-5
76.0 3.38628E-5
77.0 3.27355E-5
78.0 3.162512E-5
79.0 3.054629E-5
80.0 2.949198E-5
81.0 2.847717E-5
82.0 2.74911E-5
83.0 2.653439E-5
84.0 2.560369E-5
85.0 2.470154E-5
86.0 2.382528E-5
87.0 2.296583E-5
88.0 2.212774E-5
89.0 2.131247E-5
90.0 2.052588E-5
91.0 1.976018E-5
92.0 1.901354E-5
93.0 1.830358E-5
94.0 1.761284E-5
95.0 1.694866E-5
96.0 1.631246E-5
97.0 1.569885E-5
98.0 1.510354E-5
99.0 1.452796E-5
100.0 1.399364E-5
101.0 1.348149E-5
102.0 1.298779E-5
103.0 1.251196E-5
104.0 1.206886E-5
105.0 1.165512E-5
106.0 1.126777E-5
107.0 1.090755E-5
108.0 1.057239E-5
109.0 1.026293E-5
110.0 9.974859E-6
111.0 9.705814E-6
112.0 9.458744E-6
113.0 9.23461E-6
114.0 9.025505E-6
115.0 8.828141E-6
116.0 8.646167E-6
117.0 8.47264E-6
118.0 8.310008E-6
119.0 8.157066E-6
120.0 8.012364E-6
121.0 7.874474E-6
122.0 7.748277E-6
123.0 7.629002E-6
124.0 7.511777E-6
125.0 7.404661E-6
126.0 7.295173E-6
127.0 7.183147E-6
128.0 7.075386E-6
129.0 6.968332E-6
130.0 6.861739E-6
131.0 6.754311E-6
132.0 6.649131E-6
133.0 6.543736E-6
134.0 6.439058E-6
135.0 6.335428E-6
136.0 6.235623E-6
137.0 6.144086E-6
138.0 6.051791E-6
139.0 5.958769E-6
140.0 5.873123E-6
141.0 5.791582E-6
142.0 5.713805E-6
143.0 5.64021E-6
144.0 5.570615E-6
145.0 5.50847E-6
146.0 5.446145E-6
147.0 5.389789E-6
148.0 5.341067E-6
149.0 5.294074E-6
150.0 5.250577E-6
151.0 5.208565E-6
152.0 5.176043E-6
153.0 5.161998E-6
154.0 5.141966E-6
155.0 5.119708E-6
156.0 5.099086E-6
157.0 5.071239E-6
158.0 5.063968E-6
159.0 5.056482E-6
160.0 5.04038E-6
161.0 5.042008E-6
162.0 5.041603E-6
163.0 5.028847E-6
164.0 5.006514E-6
165.0 4.984465E-6
166.0 4.946806E-6
167.0 4.914705E-6
168.0 4.894359E-6
169.0 4.858025E-6
170.0 4.810943E-6
171.0 4.798734E-6
172.0 4.781365E-6
173.0 4.758902E-6
174.0 4.763845E-6
175.0 4.783153E-6
176.0 4.782456E-6
177.0 4.804048E-6
178.0 4.80843E-6
179.0 4.791268E-6
180.0 4.798886E-6
181.0 4.782752E-6
182.0 4.783202E-6
183.0 4.772096E-6
184.0 4.754224E-6
185.0 4.745219E-6
186.0 4.723485E-6
187.0 4.705091E-6
188.0 4.685469E-6
189.0 4.659872E-6
190.0 4.635694E-6
191.0 4.611828E-6
192.0 4.585772E-6
193.0 4.555571E-6
194.0 4.53265E-6
195.0 4.503731E-6
196.0 4.482731E-6
197.0 4.45916E-6
198.0 4.434248E-6
199.0 4.41387E-6
200.0 4.391844E-6
201.0 4.365699E-6
202.0 4.343605E-6
203.0 4.320899E-6
204.0 4.298671E-6
205.0 4.276686E-6
206.0 4.256189E-6
207.0 4.231629E-6
208.0 4.212291E-6
209.0 4.194696E-6
210.0 4.178888E-6
211.0 4.160884E-6
212.0 4.144741E-6
213.0 4.128305E-6
214.0 4.106887E-6
215.0 4.087724E-6
216.0 4.067575E-6
217.0 4.04286E-6
218.0 4.023783E-6
219.0 4.002312E-6
220.0 3.981666E-6
221.0 3.959173E-6
222.0 3.938401E-6
223.0 3.917126E-6
224.0 3.894713E-6
225.0 3.873554E-6
226.0 3.849269E-6
227.0 3.829347E-6
228.0 3.804475E-6
229.0 3.782756E-6
230.0 3.756415E-6
231.0 3.73591E-6
232.0 3.709024E-6
233.0 3.685733E-6
234.0 3.658004E-6
235.0 3.63223E-6
236.0 3.603962E-6
237.0 3.576632E-6
238.0 3.54516E-6
239.0 3.517004E-6
240.0 3.485369E-6
241.0 3.454133E-6
242.0 3.419957E-6
243.0 3.383795E-6
244.0 3.34649E-6
245.0 3.307138E-6
246.0 3.266468E-6
247.0 3.224404E-6
248.0 3.179589E-6
249.0 3.135118E-6
250.0 3.083303E-6
251.0 3.032272E-6
252.0 2.97753E-6
253.0 2.921708E-6
254.0 2.864214E-6
255.0 2.804711E-6
256.0 2.744356E-6
257.0 2.678457E-6
258.0 2.612774E-6
259.0 2.54493E-6
260.0 2.476835E-6
261.0 2.408205E-6
262.0 2.341279E-6
263.0 2.272643E-6
264.0 2.205216E-6
265.0 2.137235E-6
266.0 2.07177E-6
267.0 2.008129E-6
268.0 1.948154E-6
269.0 1.890561E-6
270.0 1.836279E-6
271.0 1.785508E-6
272.0 1.737627E-6
273.0 1.695187E-6
274.0 1.656162E-6
275.0 1.622054E-6
276.0 1.589308E-6
277.0 1.556677E-6
278.0 1.521283E-6
279.0 1.484405E-6
280.0 1.444279E-6
281.0 1.402898E-6
282.0 1.359362E-6
283.0 1.315149E-6
284.0 1.269369E-6
285.0 1.223674E-6
286.0 1.177373E-6
287.0 1.131985E-6
288.0 1.086645E-6
289.0 1.042524E-6
290.0 9.9937E-7
291.0 1.063132E-6
292.0 1.012712E-6
293.0 9.611814E-7
294.0 1.02153E-6
295.0 9.660187E-7
296.0 1.023515E-6
297.0 9.632748E-7
298.0 1.018739E-6
299.0 9.545696E-7
300.0 1.008009E-6
301.0 9.403474E-7
302.0 9.920734E-7
303.0 1.055306E-6
304.0 9.668455E-7
305.0 1.023318E-6
306.0 9.388775E-7
307.0 9.893625E-7
308.0 1.047676E-6
309.0 9.495376E-7
310.0 9.996425E-7
311.0 1.053895E-6
312.0 9.510445E-7
313.0 9.97001E-7
314.0 1.048338E-6
315.0 9.438819E-7
316.0 9.867432E-7
317.0 1.033686E-6
318.0 9.320417E-7
319.0 9.719179E-7
320.0 1.015701E-6
321.0 9.171999E-7
322.0 9.550402E-7
323.0 9.96922E-7
324.0 1.038561E-6
325.0 9.383784E-7
326.0 9.753153E-7
327.0 1.019667E-6
328.0 9.203859E-7
329.0 9.59897E-7
330.0 1.001905E-6
331.0 9.098297E-7
332.0 9.481168E-7
333.0 9.933152E-7
334.0 1.037022E-6
335.0 9.447038E-7
336.0 9.851803E-7
337.0 1.035639E-6
338.0 9.407695E-7
339.0 9.863373E-7
340.0 1.033952E-6
341.0 9.428538E-7
342.0 9.871086E-7
343.0 1.039423E-6
344.0 9.489192E-7
345.0 9.974036E-7
346.0 1.04994E-6
347.0 9.605019E-7
348.0 1.009433E-6
349.0 9.302376E-7
350.0 9.7648E-7
351.0 1.032722E-6
352.0 9.478045E-7
353.0 9.997945E-7
354.0 1.053253E-6
355.0 9.700296E-7
356.0 1.019705E-6
357.0 9.436562E-7
358.0 9.896053E-7
359.0 1.04498E-6
360.0 9.601233E-7
361.0 1.01029E-6
362.0 9.324314E-7
363.0 9.767595E-7
364.0 1.026281E-6
365.0 9.407651E-7
366.0 9.836452E-7
367.0 1.028687E-6
368.0 9.412502E-7
369.0 9.799691E-7
370.0 1.022524E-6
371.0 9.315796E-7
372.0 9.67628E-7
373.0 1.005921E-6
374.0 9.136662E-7
375.0 9.46384E-7
376.0 9.826089E-7
377.0 1.016663E-6
378.0 9.212629E-7
379.0 9.51116E-7
380.0 9.878188E-7
381.0 1.020085E-6
382.0 9.213502E-7
383.0 9.50465E-7
384.0 9.869423E-7
385.0 1.01913E-6
386.0 9.176549E-7
387.0 9.481408E-7
388.0 9.846779E-7
389.0 1.018606E-6
390.0 9.148658E-7
391.0 9.473125E-7
392.0 9.85299E-7
393.0 1.021789E-6
394.0 9.178011E-7
395.0 9.509947E-7
396.0 9.902881E-7
397.0 1.027119E-6
398.0 9.255055E-7
399.0 9.598527E-7
400.0 1.001935E-6
401.0 9.056084E-7
402.0 9.44018E-7
403.0 9.856254E-7
404.0 1.028888E-6
405.0 9.362222E-7
406.0 9.763289E-7
407.0 1.02374E-6
408.0 9.340731E-7
409.0 9.773953E-7
410.0 1.022384E-6
411.0 9.379509E-7
412.0 9.805004E-7
413.0 1.030125E-6
414.0 9.449405E-7
415.0 9.903267E-7
416.0 1.038709E-6
417.0 9.546E-7
418.0 9.993943E-7
419.0 1.049958E-6
420.0 9.634567E-7
421.0 1.008479E-6
422.0 9.283947E-7
423.0 9.682923E-7
424.0 1.014805E-6
425.0 9.279352E-7
426.0 9.676482E-7
427.0 1.009287E-6
428.0 9.224659E-7
429.0 9.583979E-7
430.0 9.989836E-7
431.0 1.036769E-6
432.0 9.461203E-7
433.0 9.789914E-7
434.0 1.019728E-6
435.0 9.263053E-7
436.0 9.604938E-7
437.0 9.960155E-7
438.0 1.032696E-6
439.0 9.376491E-7
440.0 9.700226E-7
441.0 1.008411E-6
442.0 9.123747E-7
443.0 9.468976E-7
444.0 9.844974E-7
445.0 1.023E-6
446.0 9.253179E-7
447.0 9.604415E-7
448.0 1.001759E-6
449.0 9.04586E-7
450.0 9.417327E-7
451.0 9.823804E-7
452.0 1.024348E-6
453.0 9.268991E-7
454.0 9.662821E-7
455.0 1.011298E-6
456.0 9.157252E-7
457.0 9.574636E-7
458.0 1.005217E-6
459.0 9.149855E-7
460.0 9.607605E-7
461.0 1.01158E-6
462.0 9.267055E-7
463.0 9.770177E-7
464.0 1.033362E-6
465.0 9.512372E-7
466.0 1.005863E-6
467.0 9.311962E-7
468.0 9.852207E-7
469.0 1.046164E-6
470.0 9.67037E-7
471.0 1.026948E-6
472.0 9.558391E-7
473.0 1.016346E-6
474.0 9.482524E-7
475.0 1.008628E-6
476.0 9.429451E-7
477.0 1.004104E-6
478.0 9.396154E-7
479.0 1.000794E-6
480.0 9.361896E-7
481.0 9.976818E-7
482.0 1.068889E-6
483.0 9.897426E-7
484.0 1.05694E-6
485.0 9.816414E-7
486.0 1.046384E-6
487.0 9.732795E-7
488.0 1.036339E-6
489.0 9.652022E-7
490.0 1.027972E-6
491.0 9.58238E-7
492.0 1.020312E-6
493.0 9.504287E-7
494.0 1.011023E-6
495.0 9.416662E-7
496.0 1.002202E-6
497.0 9.333415E-7
498.0 9.928967E-7
499.0 1.063543E-6
500.0 9.74029E-7
501.0 1.039455E-6
502.0 9.552195E-7
503.0 1.017014E-6
504.0 9.361632E-7
505.0 9.956533E-7
506.0 1.061602E-6
507.0 9.688748E-7
508.0 1.031766E-6
509.0 9.45082E-7
510.0 1.005293E-6
511.0 9.215994E-7
512.0 9.792506E-7
513.0 1.044622E-6
514.0 9.465946E-7
515.0 1.006665E-6
516.0 8.601363E-7
517.0 8.601844E-7
518.0 8.640652E-7
519.0 8.643922E-7
520.0 8.684201E-7
521.0 8.688625E-7
522.0 8.731775E-7
523.0 8.739521E-7
524.0 8.782297E-7
525.0 8.792181E-7
526.0 8.836318E-7
527.0 8.8491E-7
528.0 8.891126E-7
529.0 8.90593E-7
530.0 8.95008E-7
531.0 8.969991E-7
532.0 9.011942E-7
533.0 9.032466E-7
534.0 9.074518E-7
535.0 9.098051E-7
536.0 9.137773E-7
537.0 9.163541E-7
538.0 9.199815E-7
539.0 9.226387E-7
540.0 9.260177E-7
541.0 9.289057E-7
542.0 9.320366E-7
543.0 9.351105E-7
544.0 9.383271E-7
545.0 9.41843E-7
546.0 9.452925E-7
547.0 9.486463E-7
548.0 9.521776E-7
549.0 9.55647E-7
550.0 9.594577E-7
551.0 9.628399E-7
552.0 9.668653E-7
553.0 9.701399E-7
554.0 9.741823E-7
555.0 9.773204E-7
556.0 9.816475E-7
557.0 9.842634E-7
558.0 9.890093E-7
559.0 9.913448E-7
560.0 9.96315E-7
561.0 9.986466E-7
562.0 1.003671E-6
563.0 8.491683E-7
564.0 8.515141E-7
565.0 8.569E-7
566.0 8.590893E-7
567.0 8.644285E-7
568.0 8.66731E-7
569.0 8.721348E-7
570.0 8.743964E-7
571.0 8.797941E-7
572.0 8.821645E-7
573.0 8.87585E-7
574.0 8.899356E-7
575.0 8.953036E-7
576.0 8.977558E-7
577.0 9.031192E-7
578.0 9.055437E-7
579.0 9.108854E-7
580.0 9.134138E-7
581.0 9.188246E-7
582.0 9.213652E-7
583.0 9.267237E-7
584.0 9.293456E-7
585.0 9.347181E-7
586.0 9.37314E-7
587.0 9.42643E-7
588.0 9.453412E-7
589.0 9.507186E-7
590.0 9.534166E-7
591.0 9.587368E-7
592.0 9.615375E-7
593.0 9.66872E-7
594.0 9.696577E-7
595.0 9.749245E-7
596.0 9.778182E-7
597.0 9.830972E-7
598.0 9.859671E-7
599.0 9.911706E-7
600.0 9.941671E-7
601.0 9.993853E-7
602.0 1.002387E-6
603.0 8.486994E-7
604.0 8.501702E-7
605.0 8.56942E-7
606.0 8.583226E-7
607.0 8.649166E-7
608.0 8.665578E-7
609.0 8.730635E-7
610.0 8.747866E-7
611.0 8.810509E-7
612.0 8.831606E-7
613.0 8.892181E-7
614.0 8.916496E-7
615.0 8.970929E-7
616.0 9.001176E-7
617.0 9.051055E-7
618.0 9.084793E-7
619.0 9.131203E-7
620.0 9.170713E-7
621.0 9.214701E-7
622.0 9.252445E-7
623.0 9.292408E-7
624.0 9.330378E-7
625.0 9.369956E-7
626.0 9.407798E-7
627.0 9.450338E-7
628.0 9.490634E-7
629.0 9.532862E-7
630.0 9.567586E-7
631.0 9.618155E-7
632.0 9.649815E-7
633.0 9.706337E-7
634.0 9.736211E-7
635.0 9.797853E-7
636.0 9.823538E-7
637.0 9.884671E-7
638.0 9.907084E-7
639.0 9.969207E-7
640.0 9.987436E-7
641.0 1.005203E-6
642.0 8.466755E-7
643.0 8.511028E-7
644.0 8.548955E-7
645.0 8.591577E-7
646.0 8.631293E-7
647.0 8.675273E-7
648.0 8.714374E-7
649.0 8.759102E-7
650.0 8.799527E-7
651.0 8.845419E-7
652.0 8.885376E-7
653.0 8.931068E-7
654.0 8.971398E-7
655.0 9.01701E-7
656.0 9.056797E-7
657.0 9.102275E-7
658.0 9.142454E-7
659.0 9.188043E-7
660.0 9.227883E-7
661.0 9.27344E-7
662.0 9.313504E-7
663.0 9.359215E-7
664.0 9.398748E-7
665.0 9.444392E-7
666.0 9.484193E-7
667.0 9.530059E-7
668.0 9.569457E-7
669.0 9.615201E-7
670.0 9.654823E-7
671.0 9.700722E-7
672.0 9.739804E-7
673.0 9.785547E-7
674.0 1.099156E-6
675.0 9.22041E-7
676.0 9.241676E-7
677.0 9.297136E-7
678.0 9.320696E-7
679.0 9.37739E-7
680.0 9.401066E-7
681.0 9.457768E-7
682.0 9.482352E-7
683.0 9.539256E-7
684.0 9.563574E-7
685.0 9.62015E-7
686.0 9.645424E-7
687.0 9.70169E-7
688.0 9.72661E-7
689.0 9.782574E-7
690.0 9.808549E-7
691.0 9.864542E-7
692.0 9.890545E-7
693.0 9.946057E-7
694.0 9.973338E-7
695.0 1.002993E-6
696.0 8.476606E-7
697.0 8.513963E-7
698.0 8.56033E-7
699.0 8.597096E-7
700.0 8.641518E-7
701.0 8.677462E-7
702.0 8.722046E-7
703.0 8.758847E-7
704.0 8.801057E-7
705.0 8.838566E-7
706.0 8.882808E-7
707.0 8.921362E-7
708.0 8.962573E-7
709.0 9.001133E-7
710.0 9.040643E-7
711.0 9.079465E-7
712.0 9.114957E-7
713.0 9.156529E-7
714.0 9.190975E-7
715.0 9.233777E-7
716.0 9.270895E-7
717.0 9.310872E-7
718.0 9.347824E-7
719.0 9.388076E-7
720.0 9.427393E-7
721.0 9.469984E-7
722.0 9.512274E-7
723.0 9.554653E-7
724.0 9.595936E-7
725.0 9.636693E-7
726.0 9.678258E-7
727.0 9.715963E-7
728.0 9.75751E-7
729.0 9.79382E-7
730.0 9.836355E-7
731.0 9.873391E-7
732.0 9.913559E-7
733.0 9.94965E-7
734.0 9.991696E-7
735.0 1.002896E-6
736.0 8.480018E-7
737.0 8.503245E-7
738.0 8.562893E-7
739.0 8.585795E-7
740.0 8.643686E-7
741.0 8.666827E-7
742.0 8.725117E-7
743.0 8.747884E-7
744.0 8.804632E-7
745.0 8.827567E-7
746.0 8.884749E-7
747.0 8.907245E-7
748.0 8.963493E-7
749.0 8.986407E-7
750.0 9.043407E-7
751.0 9.066031E-7
752.0 9.122163E-7
753.0 9.145254E-7
754.0 9.202094E-7
755.0 9.224678E-7
756.0 9.280382E-7
757.0 9.303392E-7
758.0 9.359764E-7
759.0 9.382358E-7
760.0 9.437663E-7
761.0 9.460722E-7
762.0 9.516653E-7
763.0 9.53923E-7
764.0 9.594144E-7
765.0 9.617331E-7
766.0 9.672955E-7
767.0 9.695731E-7
768.0 9.750393E-7
769.0 9.773902E-7
770.0 9.829339E-7
771.0 9.852477E-7
772.0 9.906908E-7
773.0 9.930728E-7
774.0 9.985895E-7
775.0 1.000927E-6
776.0 8.466863E-7
777.0 8.480013E-7
778.0 8.546277E-7
779.0 8.557228E-7
780.0 8.622029E-7
781.0 8.63317E-7
782.0 8.698569E-7
783.0 8.709357E-7
784.0 8.77357E-7
785.0 8.786032E-7
786.0 8.849893E-7
787.0 8.863478E-7
788.0 8.92478E-7
789.0 8.940701E-7
790.0 9.000736E-7
791.0 9.019263E-7
792.0 9.076064E-7
793.0 9.098842E-7
794.0 9.152323E-7
795.0 9.177197E-7
796.0 9.224799E-7
797.0 9.254512E-7
798.0 9.301041E-7
799.0 9.334359E-7
800.0 9.375847E-7
801.0 9.412607E-7
802.0 9.450946E-7
803.0 9.487862E-7
804.0 9.521282E-7
805.0 9.558504E-7
806.0 9.592771E-7
807.0 9.628645E-7
808.0 9.664712E-7
809.0 9.697588E-7
810.0 9.737719E-7
811.0 9.76516E-7
812.0 9.811245E-7
813.0 9.83875E-7
814.0 9.892456E-7
815.0 9.916128E-7
816.0 9.972233E-7
817.0 9.994312E-7
818.0 1.005154E-6
819.0 8.458488E-7
820.0 8.496064E-7
821.0 8.530877E-7
822.0 8.568711E-7
823.0 8.600557E-7
824.0 8.636837E-7
825.0 8.667453E-7
826.0 8.705111E-7
827.0 8.736424E-7
828.0 8.773649E-7
829.0 8.806625E-7
830.0 8.846245E-7
831.0 8.880231E-7
832.0 8.919119E-7
833.0 8.953808E-7
834.0 8.993834E-7
835.0 9.028148E-7
836.0 9.066921E-7
837.0 9.10138E-7
838.0 9.140923E-7
839.0 9.17499E-7
840.0 9.213323E-7
841.0 9.247657E-7
842.0 9.286954E-7
843.0 9.320954E-7
844.0 9.359113E-7
845.0 9.39342E-7
846.0 9.432558E-7
847.0 9.466395E-7
848.0 9.504311E-7
849.0 9.538337E-7
850.0 9.577222E-7
851.0 9.610721E-7
852.0 9.648322E-7
853.0 9.68204E-7
854.0 9.72067E-7
855.0 9.753779E-7
856.0 9.791237E-7
857.0 9.824594E-7
858.0 9.863187E-7
859.0 9.89602E-7
860.0 9.933601E-7
861.0 9.966719E-7
862.0 1.000549E-6
863.0 8.44427E-7
864.0 8.465324E-7
865.0 8.515417E-7
866.0 8.536685E-7
867.0 8.585553E-7
868.0 8.605035E-7
869.0 8.653635E-7
870.0 8.674439E-7
871.0 8.722712E-7
872.0 8.742221E-7
873.0 8.790642E-7
874.0 8.811637E-7
875.0 8.859581E-7
876.0 8.879543E-7
877.0 8.927437E-7
878.0 8.949126E-7
879.0 8.996398E-7
880.0 9.016621E-7
881.0 9.06328E-7
882.0 9.085605E-7
883.0 9.131697E-7
884.0 9.152986E-7
885.0 9.198933E-7
886.0 9.222273E-7
887.0 9.267713E-7
888.0 9.290779E-7
889.0 9.335609E-7
890.0 9.360814E-7
891.0 9.403952E-7
892.0 9.429931E-7
893.0 9.470597E-7
894.0 9.499235E-7
895.0 9.537251E-7
896.0 9.566145E-7
897.0 9.603447E-7
898.0 9.637484E-7
899.0 9.67349E-7
900.0 9.705634E-7
901.0 9.739306E-7
902.0 9.770828E-7
903.0 9.803719E-7
904.0 9.831809E-7
905.0 9.866736E-7
906.0 9.89414E-7
907.0 9.931819E-7
908.0 9.958701E-7
909.0 9.995176E-7
910.0 1.001921E-6
911.0 8.44924E-7
912.0 8.4641E-7
913.0 8.516772E-7
914.0 8.534303E-7
915.0 8.586841E-7
916.0 8.602288E-7
917.0 8.652222E-7
918.0 8.668505E-7
919.0 8.715068E-7
920.0 8.731037E-7
921.0 8.77543E-7
922.0 8.793014E-7
923.0 8.837385E-7
924.0 8.852488E-7
925.0 8.89526E-7
926.0 8.91223E-7
927.0 8.956435E-7
928.0 8.972955E-7
929.0 9.017878E-7
930.0 9.03683E-7
931.0 9.083435E-7
932.0 9.101621E-7
933.0 9.147868E-7
934.0 9.167285E-7
935.0 9.213928E-7
936.0 9.231857E-7
937.0 9.277597E-7
938.0 9.296492E-7
939.0 9.342665E-7
940.0 9.360162E-7
941.0 9.405598E-7
942.0 9.42423E-7
943.0 9.470245E-7
944.0 9.487622E-7
945.0 9.532976E-7
946.0 9.551468E-7
947.0 9.597261E-7
948.0 9.614466E-7
949.0 9.659582E-7
950.0 9.677864E-7
951.0 9.723323E-7
952.0 9.740306E-7
953.0 9.785057E-7
954.0 9.803117E-7
955.0 9.848242E-7
956.0 9.865112E-7
957.0 9.90957E-7
958.0 9.927562E-7
959.0 9.972407E-7
960.0 9.989233E-7
961.0 1.003349E-6
962.0 8.439635E-7
963.0 8.467287E-7
964.0 8.502043E-7
965.0 8.528143E-7
966.0 8.563691E-7
967.0 8.589352E-7
968.0 8.622781E-7
969.0 8.648204E-7
970.0 8.683302E-7
971.0 8.708589E-7
972.0 8.741955E-7
973.0 8.767243E-7
974.0 8.802343E-7
975.0 8.827528E-7
976.0 8.860965E-7
977.0 8.886269E-7
978.0 8.921444E-7
979.0 8.94682E-7
980.0 8.980479E-7
981.0 9.006105E-7
982.0 9.04133E-7
983.0 9.06683E-7
984.0 9.100334E-7
985.0 9.126071E-7
986.0 9.161001E-7
987.0 9.186277E-7
988.0 9.21959E-7
989.0 9.244865E-7
990.0 9.279855E-7
991.0 9.304589E-7
992.0 9.338115E-7
993.0 9.362752E-7
994.0 9.398086E-7
995.0 9.422198E-7
996.0 9.456024E-7
997.0 9.480988E-7
998.0 9.515536E-7
999.0 9.541322E-7
1000.0 9.57436E-7
