36.0 1.0
37.0 0.03290376
38.0 0.01460608
39.0 0.006803008
40.0 0.003799608
41.0 0.00245677
42.0 0.001755839
43.0 0.001343839
44.0 0.001079778
45.0 8.990263E-4
46.0 7.689537E-4
47.0 6.717756E-4
48.0 5.968713E-4
49.0 5.377275E-4
50.0 4.901353E-4
51.0 4.511582E-4
52.0 4.188266E-4
53.0 3.916781E-4
54.0 3.685567E-4
55.0 3.486201E-4
56.0 3.312039E-4
57.0 3.157634E-4
58.0 3.019132E-4
59.0 2.893717E-4
60.0 2.779225E-4
61.0 2.67392E-4
62.0 2.576431E-4
63.0 2.485598E-4
64.0 2.400751E-4
65.0 2.321428E-4
66.0 2.246382E-4
67.0 2.175645E-4
68.0 2.10881E-4
69.0 2.045151E-4
70.0 1.984523E-4
71.0 1.927066E-4
72.0 1.871815E-4
73.0 1.819222E-4
74.0 1.768616E-4
75.0 1.720828E-4
76.0 1.675106E-4
77.0 1.631044E-4
78.0 1.588684E-4
79.0 1.548638E-4
80.0 1.509939E-4
81.0 1.473046E-4
82.0 1.437664E-4
83.0 1.403918E-4
84.0 1.371448E-4
85.0 1.340234E-4
86.0 1.310504E-4
87.0 1.281708E-4
88.0 1.254051E-4
89.0 1.22738E-4
90.0 1.201376E-4
91.0 1.176667E-4
92.0 1.152997E-4
93.0 1.129967E-4
94.0 1.107139E-4
95.0 1.085483E-4
96.0 1.064049E-4
97.0 1.043812E-4
98.0 1.024148E-4
99.0 1.005328E-4
100.0 9.873197E-5
101.0 9.698449E-5
102.0 9.525994E-5
103.0 9.362493E-5
104.0 9.204561E-5
105.0 9.05115E-5
106.0 8.904075E-5
107.0 8.764163E-5
108.0 8.625636E-5
109.0 8.491411E-5
110.0 8.358819E-5
111.0 8.229118E-5
112.0 8.099809E-5
113.0 7.980224E-5
114.0 7.860115E-5
115.0 7.74551E-5
116.0 7.632331E-5
117.0 7.526257E-5
118.0 7.424272E-5
119.0 7.330632E-5
120.0 7.237949E-5
121.0 7.149193E-5
122.0 7.066712E-5
123.0 6.987781E-5
124.0 6.907369E-5
125.0 6.836139E-5
126.0 6.76144E-5
127.0 6.690954E-5
128.0 6.623229E-5
129.0 6.559271E-5
130.0 6.494624E-5
131.0 6.436023E-5
132.0 6.378165E-5
133.0 6.324373E-5
134.0 6.271182E-5
135.0 6.22282E-5
136.0 6.176025E-5
137.0 6.13476E-5
138.0 6.091837E-5
139.0 6.054439E-5
140.0 6.019963E-5
141.0 5.989822E-5
142.0 5.959755E-5
143.0 5.933753E-5
144.0 5.908452E-5
145.0 5.888804E-5
146.0 5.867601E-5
147.0 5.854121E-5
148.0 5.842939E-5
149.0 5.835365E-5
150.0 5.82504E-5
151.0 5.819513E-5
152.0 5.822668E-5
153.0 5.831699E-5
154.0 5.839576E-5
155.0 5.849617E-5
156.0 5.857229E-5
157.0 5.86813E-5
158.0 5.886152E-5
159.0 5.900856E-5
160.0 5.909261E-5
161.0 5.929425E-5
162.0 5.951759E-5
163.0 5.960437E-5
164.0 5.978305E-5
165.0 5.991068E-5
166.0 5.997488E-5
167.0 6.006896E-5
168.0 6.035561E-5
169.0 6.051015E-5
170.0 6.057543E-5
171.0 6.064411E-5
172.0 6.092437E-5
173.0 6.117536E-5
174.0 6.140128E-5
175.0 6.202736E-5
176.0 6.252808E-5
177.0 6.300339E-5
178.0 6.369139E-5
179.0 6.421515E-5
180.0 6.470389E-5
181.0 6.528674E-5
182.0 6.566745E-5
183.0 6.625281E-5
184.0 6.683915E-5
185.0 6.744898E-5
186.0 6.819913E-5
187.0 6.883613E-5
188.0 6.954062E-5
189.0 7.02551E-5
190.0 7.08586E-5
191.0 7.159779E-5
192.0 7.227724E-5
193.0 7.290158E-5
194.0 7.357452E-5
195.0 7.421324E-5
196.0 7.48952E-5
197.0 7.555059E-5
198.0 7.624532E-5
199.0 7.699147E-5
200.0 7.763589E-5
201.0 7.829664E-5
202.0 7.890946E-5
203.0 7.957354E-5
204.0 8.021811E-5
205.0 8.085611E-5
206.0 8.146213E-5
207.0 8.211054E-5
208.0 8.266405E-5
209.0 8.338353E-5
210.0 8.394696E-5
211.0 8.456816E-5
212.0 8.513117E-5
213.0 8.574987E-5
214.0 8.635563E-5
215.0 8.687813E-5
216.0 8.747344E-5
217.0 8.795935E-5
218.0 8.855714E-5
219.0 8.901568E-5
220.0 8.957644E-5
221.0 9.002037E-5
222.0 9.059874E-5
223.0 9.102943E-5
224.0 9.152621E-5
225.0 9.196494E-5
226.0 9.238949E-5
227.0 9.278934E-5
228.0 9.317812E-5
229.0 9.350368E-5
230.0 9.387898E-5
231.0 9.419396E-5
232.0 9.453502E-5
233.0 9.483459E-5
234.0 9.501432E-5
235.0 9.525094E-5
236.0 9.537533E-5
237.0 9.548609E-5
238.0 9.555392E-5
239.0 9.559175E-5
240.0 9.565752E-5
241.0 9.556613E-5
242.0 9.535263E-5
243.0 9.512898E-5
244.0 9.480971E-5
245.0 9.439523E-5
246.0 9.392117E-5
247.0 9.340159E-5
248.0 9.277747E-5
249.0 9.192651E-5
250.0 9.099888E-5
251.0 8.997683E-5
252.0 8.87905E-5
253.0 8.759539E-5
254.0 8.624486E-5
255.0 8.478753E-5
256.0 8.315298E-5
257.0 8.141123E-5
258.0 7.956612E-5
259.0 7.764789E-5
260.0 7.569875E-5
261.0 7.368125E-5
262.0 7.163142E-5
263.0 6.955264E-5
264.0 6.742541E-5
265.0 6.535407E-5
266.0 6.333599E-5
267.0 6.137846E-5
268.0 5.949167E-5
269.0 5.777807E-5
270.0 5.609664E-5
271.0 5.461812E-5
272.0 5.327352E-5
273.0 5.210051E-5
274.0 5.106417E-5
275.0 5.017493E-5
276.0 4.921995E-5
277.0 4.821029E-5
278.0 4.710008E-5
279.0 4.59207E-5
280.0 4.464167E-5
281.0 4.331571E-5
282.0 4.191234E-5
283.0 4.04849E-5
284.0 3.902122E-5
285.0 3.755728E-5
286.0 3.608274E-5
287.0 3.464317E-5
288.0 3.321664E-5
289.0 3.184311E-5
290.0 3.094382E-5
291.0 2.970207E-5
292.0 2.84062E-5
293.0 2.758569E-5
294.0 2.644674E-5
295.0 2.569265E-5
296.0 2.463225E-5
297.0 2.394984E-5
298.0 2.297682E-5
299.0 2.237493E-5
300.0 2.149496E-5
301.0 2.096712E-5
302.0 2.05154E-5
303.0 1.974622E-5
304.0 1.931592E-5
305.0 1.862926E-5
306.0 1.826178E-5
307.0 1.795504E-5
308.0 1.735637E-5
309.0 1.70632E-5
310.0 1.681912E-5
311.0 1.629591E-5
312.0 1.606185E-5
313.0 1.586639E-5
314.0 1.541363E-5
315.0 1.522182E-5
316.0 1.50698E-5
317.0 1.466927E-5
318.0 1.451751E-5
319.0 1.439282E-5
320.0 1.403779E-5
321.0 1.391172E-5
322.0 1.381188E-5
323.0 1.372213E-5
324.0 1.339907E-5
325.0 1.330023E-5
326.0 1.322266E-5
327.0 1.293188E-5
328.0 1.284534E-5
329.0 1.279201E-5
330.0 1.251645E-5
331.0 1.245636E-5
332.0 1.240621E-5
333.0 1.237613E-5
334.0 1.211885E-5
335.0 1.207409E-5
336.0 1.204086E-5
337.0 1.181981E-5
338.0 1.17719E-5
339.0 1.176121E-5
340.0 1.154359E-5
341.0 1.151843E-5
342.0 1.150184E-5
343.0 1.131319E-5
344.0 1.12796E-5
345.0 1.128445E-5
346.0 1.109143E-5
347.0 1.107807E-5
348.0 1.089458E-5
349.0 1.088398E-5
350.0 1.087843E-5
351.0 1.071644E-5
352.0 1.069195E-5
353.0 1.07041E-5
354.0 1.05298E-5
355.0 1.052221E-5
356.0 1.03537E-5
357.0 1.03476E-5
358.0 1.034538E-5
359.0 1.019459E-5
360.0 1.017597E-5
361.0 1.003022E-5
362.0 1.001217E-5
363.0 1.002334E-5
364.0 9.86773E-6
365.0 9.866659E-6
366.0 9.864634E-6
367.0 9.725252E-6
368.0 9.711548E-6
369.0 9.725796E-6
370.0 9.575333E-6
371.0 9.578081E-6
372.0 9.580132E-6
373.0 9.446175E-6
374.0 9.437622E-6
375.0 9.452623E-6
376.0 9.461275E-6
377.0 9.32611E-6
378.0 9.323142E-6
379.0 9.338503E-6
380.0 9.354834E-6
381.0 9.2124E-6
382.0 9.214714E-6
383.0 9.231685E-6
384.0 9.250031E-6
385.0 9.104819E-6
386.0 9.107191E-6
387.0 9.124566E-6
388.0 9.147333E-6
389.0 9.0E-6
390.0 9.005236E-6
391.0 9.025498E-6
392.0 9.052281E-6
393.0 8.90765E-6
394.0 8.914278E-6
395.0 8.937181E-6
396.0 8.963443E-6
397.0 8.824519E-6
398.0 8.830508E-6
399.0 8.858205E-6
400.0 8.720645E-6
401.0 8.730848E-6
402.0 8.750891E-6
403.0 8.783663E-6
404.0 8.647996E-6
405.0 8.662063E-6
406.0 8.681062E-6
407.0 8.564537E-6
408.0 8.56341E-6
409.0 8.595229E-6
410.0 8.463944E-6
411.0 8.478301E-6
412.0 8.49354E-6
413.0 8.375156E-6
414.0 8.372234E-6
415.0 8.401161E-6
416.0 8.264377E-6
417.0 8.274546E-6
418.0 8.286826E-6
419.0 8.162326E-6
420.0 8.155915E-6
421.0 8.031182E-6
422.0 8.023236E-6
423.0 8.046347E-6
424.0 7.906639E-6
425.0 7.91509E-6
426.0 7.920035E-6
427.0 7.798936E-6
428.0 7.791226E-6
429.0 7.81291E-6
430.0 7.820699E-6
431.0 7.699212E-6
432.0 7.693905E-6
433.0 7.717774E-6
434.0 7.581903E-6
435.0 7.59457E-6
436.0 7.602651E-6
437.0 7.629037E-6
438.0 7.491741E-6
439.0 7.503977E-6
440.0 7.515553E-6
441.0 7.39249E-6
442.0 7.39158E-6
443.0 7.417088E-6
444.0 7.43251E-6
445.0 7.307906E-6
446.0 7.308623E-6
447.0 7.337893E-6
448.0 7.204391E-6
449.0 7.218564E-6
450.0 7.237411E-6
451.0 7.270393E-6
452.0 7.144176E-6
453.0 7.160255E-6
454.0 7.189133E-6
455.0 7.077225E-6
456.0 7.090033E-6
457.0 7.122503E-6
458.0 7.017207E-6
459.0 7.033649E-6
460.0 7.069935E-6
461.0 6.970004E-6
462.0 6.989937E-6
463.0 7.027459E-6
464.0 6.938244E-6
465.0 6.958595E-6
466.0 6.871474E-6
467.0 6.893247E-6
468.0 6.93949E-6
469.0 6.847933E-6
470.0 6.871703E-6
471.0 6.778559E-6
472.0 6.800401E-6
473.0 6.707854E-6
474.0 6.728395E-6
475.0 6.636815E-6
476.0 6.653933E-6
477.0 6.563676E-6
478.0 6.579796E-6
479.0 6.491447E-6
480.0 6.505271E-6
481.0 6.55006E-6
482.0 6.446131E-6
483.0 6.475787E-6
484.0 6.369655E-6
485.0 6.397005E-6
486.0 6.292272E-6
487.0 6.319428E-6
488.0 6.215919E-6
489.0 6.242075E-6
490.0 6.140858E-6
491.0 6.16672E-6
492.0 6.066733E-6
493.0 6.091817E-6
494.0 5.993743E-6
495.0 6.019429E-6
496.0 5.921502E-6
497.0 5.946782E-6
498.0 5.976019E-6
499.0 5.886968E-6
500.0 5.897407E-6
501.0 5.801858E-6
502.0 5.803881E-6
503.0 5.69902E-6
504.0 5.682201E-6
505.0 5.677677E-6
506.0 5.495931E-6
507.0 5.384364E-6
508.0 5.070042E-6
509.0 4.740306E-6
510.0 4.167802E-6
511.0 3.512685E-6
512.0 2.736729E-6
513.0 1.957902E-6
514.0 1.301829E-6
515.0 8.200056E-7
516.0 8.166908E-7
517.0 8.18711E-7
518.0 8.179024E-7
519.0 8.200001E-7
520.0 8.192337E-7
521.0 8.212893E-7
522.0 8.206628E-7
523.0 8.227782E-7
524.0 8.222041E-7
525.0 8.242265E-7
526.0 8.238191E-7
527.0 8.258791E-7
528.0 8.255361E-7
529.0 8.273529E-7
530.0 8.272828E-7
531.0 8.291925E-7
532.0 8.293216E-7
533.0 8.307581E-7
534.0 8.312399E-7
535.0 8.325173E-7
536.0 8.332275E-7
537.0 8.342187E-7
538.0 8.351829E-7
539.0 8.360785E-7
540.0 8.369865E-7
541.0 8.377189E-7
542.0 8.387784E-7
543.0 8.395549E-7
544.0 8.40746E-7
545.0 8.416542E-7
546.0 8.431341E-7
547.0 8.439002E-7
548.0 8.448649E-7
549.0 8.459317E-7
550.0 8.46708E-7
551.0 8.479995E-7
552.0 8.48608E-7
553.0 8.502106E-7
554.0 8.506127E-7
555.0 8.523491E-7
556.0 8.52541E-7
557.0 8.545004E-7
558.0 8.544343E-7
559.0 8.567071E-7
560.0 8.565071E-7
561.0 8.590742E-7
562.0 8.620972E-7
563.0 8.622521E-7
564.0 8.614974E-7
565.0 8.644942E-7
566.0 8.636658E-7
567.0 8.66643E-7
568.0 8.65896E-7
569.0 8.689194E-7
570.0 8.681456E-7
571.0 8.7114E-7
572.0 8.704323E-7
573.0 8.734592E-7
574.0 8.727298E-7
575.0 8.757303E-7
576.0 8.750577E-7
577.0 8.780867E-7
578.0 8.773949E-7
579.0 8.804064E-7
580.0 8.797648E-7
581.0 8.828062E-7
582.0 8.821446E-7
583.0 8.85158E-7
584.0 8.845417E-7
585.0 8.875851E-7
586.0 8.869477E-7
587.0 8.899562E-7
588.0 8.893582E-7
589.0 8.924097E-7
590.0 8.917759E-7
591.0 8.947906E-7
592.0 8.942174E-7
593.0 8.972378E-7
594.0 8.966387E-7
595.0 8.99619E-7
596.0 8.990773E-7
597.0 9.020721E-7
598.0 9.015108E-7
599.0 9.044388E-7
600.0 9.039545E-7
601.0 9.068916E-7
602.0 9.095726E-7
603.0 9.097211E-7
604.0 9.091178E-7
605.0 9.122696E-7
606.0 9.116797E-7
607.0 9.147062E-7
608.0 9.142957E-7
609.0 9.172786E-7
610.0 9.169545E-7
611.0 9.196551E-7
612.0 9.196368E-7
613.0 9.223054E-7
614.0 9.225677E-7
615.0 9.246649E-7
616.0 9.253401E-7
617.0 9.271335E-7
618.0 9.281037E-7
619.0 9.295375E-7
620.0 9.308975E-7
621.0 9.321698E-7
622.0 9.334681E-7
623.0 9.344447E-7
624.0 9.359104E-7
625.0 9.369416E-7
626.0 9.385616E-7
627.0 9.396304E-7
628.0 9.414868E-7
629.0 9.424791E-7
630.0 9.437898E-7
631.0 9.452313E-7
632.0 9.461794E-7
633.0 9.479058E-7
634.0 9.486554E-7
635.0 9.507536E-7
636.0 9.512434E-7
637.0 9.534896E-7
638.0 9.536747E-7
639.0 9.561802E-7
640.0 9.560047E-7
641.0 9.621035E-7
642.0 9.588189E-7
643.0 9.618507E-7
644.0 9.613484E-7
645.0 9.6428E-7
646.0 9.638547E-7
647.0 9.668847E-7
648.0 9.664163E-7
649.0 9.694573E-7
650.0 9.690697E-7
651.0 9.721526E-7
652.0 9.717338E-7
653.0 9.748048E-7
654.0 9.744217E-7
655.0 9.77494E-7
656.0 9.770825E-7
657.0 9.80139E-7
658.0 9.797521E-7
659.0 9.828112E-7
660.0 9.824095E-7
661.0 9.854616E-7
662.0 9.850924E-7
663.0 9.881517E-7
664.0 9.87765E-7
665.0 9.908185E-7
666.0 9.904667E-7
667.0 9.935247E-7
668.0 9.931504E-7
669.0 9.961954E-7
670.0 9.958515E-7
671.0 9.989043E-7
672.0 9.985245E-7
673.0 1.001569E-6
674.0 6.194368E-7
675.0 6.179461E-7
676.0 6.186482E-7
677.0 6.19581E-7
678.0 6.203208E-7
679.0 6.21267E-7
680.0 6.219829E-7
681.0 6.229162E-7
682.0 6.236537E-7
683.0 6.245942E-7
684.0 6.253123E-7
685.0 6.262269E-7
686.0 6.269956E-7
687.0 6.278922E-7
688.0 6.286439E-7
689.0 6.295257E-7
690.0 6.303222E-7
691.0 6.31194E-7
692.0 6.319783E-7
693.0 6.328447E-7
694.0 6.336536E-7
695.0 6.37067E-7
696.0 6.357434E-7
697.0 6.365897E-7
698.0 6.375492E-7
699.0 6.383841E-7
700.0 6.393358E-7
701.0 6.401453E-7
702.0 6.411422E-7
703.0 6.419946E-7
704.0 6.428729E-7
705.0 6.436919E-7
706.0 6.447539E-7
707.0 6.455272E-7
708.0 6.464425E-7
709.0 6.472378E-7
710.0 6.481429E-7
711.0 6.48901E-7
712.0 6.497691E-7
713.0 6.50562E-7
714.0 6.514676E-7
715.0 6.522617E-7
716.0 6.533606E-7
717.0 6.539924E-7
718.0 6.550001E-7
719.0 6.556855E-7
720.0 6.566514E-7
721.0 6.57419E-7
722.0 6.5845E-7
723.0 6.591569E-7
724.0 6.601506E-7
725.0 6.609138E-7
726.0 6.618994E-7
727.0 6.625317E-7
728.0 6.635283E-7
729.0 6.642417E-7
730.0 6.651943E-7
731.0 6.65943E-7
732.0 6.667401E-7
733.0 6.674618E-7
734.0 6.683325E-7
735.0 6.716727E-7
736.0 6.704386E-7
737.0 6.711501E-7
738.0 6.722282E-7
739.0 6.728935E-7
740.0 6.739076E-7
741.0 6.74618E-7
742.0 6.756848E-7
743.0 6.763314E-7
744.0 6.773409E-7
745.0 6.780397E-7
746.0 6.791034E-7
747.0 6.797368E-7
748.0 6.807473E-7
749.0 6.814416E-7
750.0 6.825113E-7
751.0 6.83142E-7
752.0 6.841599E-7
753.0 6.848549E-7
754.0 6.859325E-7
755.0 6.865606E-7
756.0 6.875806E-7
757.0 6.882716E-7
758.0 6.893509E-7
759.0 6.899738E-7
760.0 6.909919E-7
761.0 6.91677E-7
762.0 6.927553E-7
763.0 6.933749E-7
764.0 6.943876E-7
765.0 6.950742E-7
766.0 6.961449E-7
767.0 6.967677E-7
768.0 6.977715E-7
769.0 6.984623E-7
770.0 6.995287E-7
771.0 7.001535E-7
772.0 7.011536E-7
773.0 7.018459E-7
774.0 7.029058E-7
775.0 7.062873E-7
776.0 7.051451E-7
777.0 7.057604E-7
778.0 7.069531E-7
779.0 7.074742E-7
780.0 7.085998E-7
781.0 7.091681E-7
782.0 7.103733E-7
783.0 7.108443E-7
784.0 7.120071E-7
785.0 7.125422E-7
786.0 7.137709E-7
787.0 7.142973E-7
788.0 7.153684E-7
789.0 7.160386E-7
790.0 7.171433E-7
791.0 7.17735E-7
792.0 7.188001E-7
793.0 7.195914E-7
794.0 7.206897E-7
795.0 7.213943E-7
796.0 7.223419E-7
797.0 7.23083E-7
798.0 7.241898E-7
799.0 7.248911E-7
800.0 7.258354E-7
801.0 7.266325E-7
802.0 7.275721E-7
803.0 7.282808E-7
804.0 7.290262E-7
805.0 7.298678E-7
806.0 7.30866E-7
807.0 7.31549E-7
808.0 7.325809E-7
809.0 7.331877E-7
810.0 7.342268E-7
811.0 7.347972E-7
812.0 7.358151E-7
813.0 7.36472E-7
814.0 7.376677E-7
815.0 7.381641E-7
816.0 7.393206E-7
817.0 7.399263E-7
818.0 7.440123E-7
819.0 7.423072E-7
820.0 7.433235E-7
821.0 7.44058E-7
822.0 7.450251E-7
823.0 7.457255E-7
824.0 7.465158E-7
825.0 7.472377E-7
826.0 7.481257E-7
827.0 7.488239E-7
828.0 7.496599E-7
829.0 7.504678E-7
830.0 7.513926E-7
831.0 7.521251E-7
832.0 7.529823E-7
833.0 7.537988E-7
834.0 7.547182E-7
835.0 7.55438E-7
836.0 7.562905E-7
837.0 7.57095E-7
838.0 7.58011E-7
839.0 7.587226E-7
840.0 7.595745E-7
841.0 7.603753E-7
842.0 7.612948E-7
843.0 7.620058E-7
844.0 7.62863E-7
845.0 7.636646E-7
846.0 7.645892E-7
847.0 7.652987E-7
848.0 7.661584E-7
849.0 7.669568E-7
850.0 7.678814E-7
851.0 7.68585E-7
852.0 7.694421E-7
853.0 7.702332E-7
854.0 7.71154E-7
855.0 7.718498E-7
856.0 7.72703E-7
857.0 7.734871E-7
858.0 7.74404E-7
859.0 7.750933E-7
860.0 7.75943E-7
861.0 7.767213E-7
862.0 7.808452E-7
863.0 7.794266E-7
864.0 7.801503E-7
865.0 7.811091E-7
866.0 7.818887E-7
867.0 7.827429E-7
868.0 7.834487E-7
869.0 7.843979E-7
870.0 7.85168E-7
871.0 7.860208E-7
872.0 7.867196E-7
873.0 7.876737E-7
874.0 7.88432E-7
875.0 7.892743E-7
876.0 7.899717E-7
877.0 7.909011E-7
878.0 7.916712E-7
879.0 7.924799E-7
880.0 7.931867E-7
881.0 7.940729E-7
882.0 7.948644E-7
883.0 7.956275E-7
884.0 7.963707E-7
885.0 7.972285E-7
886.0 7.980328E-7
887.0 7.988713E-7
888.0 7.995236E-7
889.0 8.004827E-7
890.0 8.012633E-7
891.0 8.020876E-7
892.0 8.028667E-7
893.0 8.037508E-7
894.0 8.046145E-7
895.0 8.053385E-7
896.0 8.06172E-7
897.0 8.069776E-7
898.0 8.079888E-7
899.0 8.08696E-7
900.0 8.095172E-7
901.0 8.102234E-7
902.0 8.110766E-7
903.0 8.117335E-7
904.0 8.125127E-7
905.0 8.132016E-7
906.0 8.14086E-7
907.0 8.147572E-7
908.0 8.157766E-7
909.0 8.163257E-7
910.0 8.206416E-7
911.0 8.190704E-7
912.0 8.198277E-7
913.0 8.207395E-7
914.0 8.216102E-7
915.0 8.223737E-7
916.0 8.231571E-7
917.0 8.240333E-7
918.0 8.248316E-7
919.0 8.254805E-7
920.0 8.262643E-7
921.0 8.270918E-7
922.0 8.278414E-7
923.0 8.286268E-7
924.0 8.291832E-7
925.0 8.300205E-7
926.0 8.306819E-7
927.0 8.314732E-7
928.0 8.320678E-7
929.0 8.329898E-7
930.0 8.336826E-7
931.0 8.345088E-7
932.0 8.351255E-7
933.0 8.360515E-7
934.0 8.367431E-7
935.0 8.375557E-7
936.0 8.381661E-7
937.0 8.390764E-7
938.0 8.397622E-7
939.0 8.405641E-7
940.0 8.411713E-7
941.0 8.420766E-7
942.0 8.427648E-7
943.0 8.43566E-7
944.0 8.441784E-7
945.0 8.450842E-7
946.0 8.457781E-7
947.0 8.465792E-7
948.0 8.471945E-7
949.0 8.480974E-7
950.0 8.487913E-7
951.0 8.495865E-7
952.0 8.501991E-7
953.0 8.510947E-7
954.0 8.517855E-7
955.0 8.525729E-7
956.0 8.531817E-7
957.0 8.540701E-7
958.0 8.547578E-7
959.0 8.55538E-7
960.0 8.561438E-7
961.0 8.605889E-7
962.0 8.59091E-7
963.0 8.597175E-7
964.0 8.605242E-7
965.0 8.612414E-7
966.0 8.621211E-7
967.0 8.627245E-7
968.0 8.635188E-7
969.0 8.642256E-7
970.0 8.651011E-7
971.0 8.656983E-7
972.0 8.664903E-7
973.0 8.671922E-7
974.0 8.680676E-7
975.0 8.686588E-7
976.0 8.694528E-7
977.0 8.701519E-7
978.0 8.710254E-7
979.0 8.716203E-7
980.0 8.724121E-7
981.0 8.731177E-7
982.0 8.739849E-7
983.0 8.745846E-7
984.0 8.753647E-7
985.0 8.760715E-7
986.0 8.769256E-7
987.0 8.775122E-7
988.0 8.782916E-7
989.0 8.789671E-7
990.0 8.798349E-7
991.0 8.803839E-7
992.0 8.811818E-7
993.0 8.818158E-7
994.0 8.82708E-7
995.0 8.832094E-7
996.0 8.840373E-7
997.0 8.847059E-7
998.0 8.855286E-7
999.0 8.861688E-7
1000.0 8.868966E-7
