1.0 1.0
2.0 0.9853637
3.0 0.154124
4.0 0.109242
5.0 0.09464826
6.0 0.07756315
7.0 0.06087186
8.0 0.04834885
9.0 0.03816067
10.0 0.0316506
11.0 0.02732996
12.0 0.02389404
13.0 0.0214268
14.0 0.0195696
15.0 0.01834816
16.0 0.01752304
17.0 0.0168166
18.0 0.01604669
19.0 0.01527402
20.0 0.01451838
21.0 0.0140468
22.0 0.01348905
23.0 0.01310942
24.0 0.01266009
25.0 0.01214193
26.0 0.01169278
27.0 0.01112174
28.0 0.01068006
29.0 0.01022596
30.0 0.009757701
31.0 0.009274189
32.0 0.008912131
33.0 0.008641153
34.0 0.008331006
35.0 0.008073519
36.0 0.007853701
37.0 0.007778593
38.0 0.007681176
39.0 0.007649064
40.0 0.007509329
41.0 0.007551419
42.0 0.007422943
43.0 0.007372859
44.0 0.007296459
45.0 0.007302013
46.0 0.007220224
47.0 0.007183438
48.0 0.007154815
49.0 0.007094735
50.0 0.007171464
51.0 0.006984527
52.0 0.006909537
53.0 0.006922123
54.0 0.006825391
55.0 0.006777711
56.0 0.006851622
57.0 0.00675343
58.0 0.006642988
59.0 0.00663571
60.0 0.006622729
61.0 0.006618755
62.0 0.006520351
63.0 0.006495236
64.0 0.006554454
65.0 0.00651263
66.0 0.006419496
67.0 0.006395579
68.0 0.006411016
69.0 0.006427629
70.0 0.006320715
71.0 0.006292433
72.0 0.006260402
73.0 0.006223581
74.0 0.006173998
75.0 0.006054785
76.0 0.006088193
77.0 0.005947243
78.0 0.005756475
79.0 0.005666152
80.0 0.005527545
81.0 0.005522775
82.0 0.005465157
83.0 0.005286515
84.0 0.005191358
85.0 0.005172829
86.0 0.005008873
87.0 0.004931363
88.0 0.004799487
89.0 0.004824863
90.0 0.004661025
91.0 0.004599115
92.0 0.004502896
93.0 0.004553521
94.0 0.004387669
95.0 0.004376776
96.0 0.004171936
97.0 0.00420835
98.0 0.004037303
99.0 0.004001907
100.0 0.003857043
101.0 0.003950799
102.0 0.003764176
103.0 0.003762811
104.0 0.003653602
105.0 0.003742664
106.0 0.003582373
107.0 0.003586052
108.0 0.003431555
109.0 0.003470439
110.0 0.003295641
111.0 0.003300087
112.0 0.003156824
113.0 0.003227942
114.0 0.003059854
115.0 0.003062187
116.0 0.002965269
117.0 0.003065889
118.0 0.002987138
119.0 0.00304225
120.0 0.002978447
121.0 0.003027623
122.0 0.002851563
123.0 0.002797971
124.0 0.002613714
125.0 0.002623805
126.0 0.002469587
127.0 0.002420024
128.0 0.00228389
129.0 0.00231861
130.0 0.00216824
131.0 0.002150352
132.0 0.002038956
133.0 0.002114133
134.0 0.00197631
135.0 0.002005029
136.0 0.001894193
137.0 0.001996465
138.0 0.001870553
139.0 0.001894405
140.0 0.001818633
141.0 0.001889723
142.0 0.001811101
143.0 0.001867166
144.0 0.001790177
145.0 0.001870534
146.0 0.001777218
147.0 0.001823105
148.0 0.001747741
149.0 0.001851458
150.0 0.001757092
151.0 0.001811789
152.0 0.001734372
153.0 0.001839483
154.0 0.001740833
155.0 0.001758305
156.0 0.001699959
157.0 0.00177289
158.0 0.001703203
159.0 0.001723912
160.0 0.001670607
161.0 0.00175126
162.0 0.001679132
163.0 0.001679746
164.0 0.001648365
165.0 0.001669719
166.0 0.001651976
167.0 0.001686581
168.0 0.001669508
169.0 0.001663346
170.0 0.001627457
171.0 0.001725335
172.0 0.001649287
173.0 0.001639602
174.0 0.001636336
175.0 0.001627333
176.0 0.00162978
177.0 0.001621015
178.0 0.001615669
179.0 0.001630191
180.0 0.001605439
181.0 0.001621936
182.0 0.001583062
183.0 0.001596086
184.0 0.001572143
185.0 0.001557379
186.0 0.001496783
187.0 0.001504694
188.0 0.001516068
189.0 0.001496915
190.0 0.0014348
191.0 0.001460487
192.0 0.001447185
193.0 0.00144465
194.0 0.001399441
195.0 0.00141691
196.0 0.001421036
197.0 0.001411816
198.0 0.001342755
199.0 0.001374028
200.0 0.001398991
201.0 0.001387777
202.0 0.0013031
203.0 0.001348723
204.0 0.001294872
205.0 0.001324384
206.0 0.001286003
207.0 0.00132541
208.0 0.001274758
209.0 0.001302364
210.0 0.001280681
211.0 0.001297769
212.0 0.001270349
213.0 0.001281853
214.0 0.001238068
215.0 0.001264067
216.0 0.001244524
217.0 0.001257401
218.0 0.001212727
219.0 0.001236775
220.0 0.001213003
221.0 0.001227981
222.0 0.001191346
223.0 0.001213912
224.0 0.001184531
225.0 0.001202706
226.0 0.001176205
227.0 0.001190539
228.0 0.001169721
229.0 0.001175856
230.0 0.001156817
231.0 0.00115847
232.0 0.001153998
233.0 0.001149608
234.0 0.001142127
235.0 0.00113491
236.0 0.001136378
237.0 0.001125232
238.0 0.00114043
239.0 0.001120554
240.0 0.001147292
241.0 0.00112115
242.0 0.001125197
243.0 0.001105899
244.0 0.001117239
245.0 0.001103566
246.0 0.001098525
247.0 0.001091287
248.0 0.001083968
249.0 0.001082045
250.0 0.001068396
251.0 0.001071298
252.0 0.001046026
253.0 0.001062546
254.0 0.001027944
255.0 0.001048668
256.0 0.001004462
257.0 0.001016406
258.0 9.694175E-4
259.0 9.846097E-4
260.0 9.35751E-4
261.0 9.45801E-4
262.0 8.939172E-4
263.0 9.051131E-4
264.0 8.500967E-4
265.0 8.584399E-4
266.0 8.028105E-4
267.0 8.119844E-4
268.0 7.549628E-4
269.0 7.632696E-4
270.0 7.070833E-4
271.0 7.181876E-4
272.0 6.613001E-4
273.0 6.711987E-4
274.0 6.168246E-4
275.0 6.329644E-4
276.0 5.826402E-4
277.0 6.005373E-4
278.0 5.542321E-4
279.0 5.761926E-4
280.0 5.302306E-4
281.0 5.520536E-4
282.0 5.128346E-4
283.0 5.421737E-4
284.0 5.028017E-4
285.0 5.267622E-4
286.0 4.874628E-4
287.0 5.163949E-4
288.0 4.804633E-4
289.0 5.089214E-4
290.0 4.75669E-4
291.0 5.061871E-4
292.0 4.712502E-4
293.0 4.966201E-4
294.0 4.630717E-4
295.0 4.938061E-4
296.0 4.577688E-4
297.0 4.835007E-4
298.0 4.489263E-4
299.0 4.764677E-4
300.0 4.413346E-4
301.0 4.620606E-4
302.0 4.316335E-4
303.0 4.557058E-4
304.0 4.259201E-4
305.0 4.407732E-4
306.0 4.141843E-4
307.0 4.223853E-4
308.0 4.080688E-4
309.0 4.085324E-4
310.0 3.958272E-4
311.0 3.921533E-4
312.0 3.877702E-4
313.0 3.777084E-4
314.0 3.82004E-4
315.0 3.679399E-4
316.0 3.826411E-4
317.0 3.611713E-4
318.0 3.800348E-4
319.0 3.545802E-4
320.0 3.606929E-4
321.0 3.443224E-4
322.0 3.462391E-4
323.0 3.39348E-4
324.0 3.386121E-4
325.0 3.312427E-4
326.0 3.187324E-4
327.0 3.26432E-4
328.0 3.123448E-4
329.0 3.27107E-4
330.0 3.037019E-4
331.0 3.348092E-4
332.0 3.015523E-4
333.0 3.275252E-4
334.0 2.925324E-4
335.0 3.178913E-4
336.0 2.821783E-4
337.0 3.127914E-4
338.0 2.752059E-4
339.0 3.028033E-4
340.0 2.673322E-4
341.0 2.981164E-4
342.0 2.615398E-4
343.0 2.902496E-4
344.0 2.552651E-4
345.0 2.866853E-4
346.0 2.511238E-4
347.0 2.800331E-4
348.0 2.453888E-4
349.0 2.778491E-4
350.0 2.419903E-4
351.0 2.715793E-4
352.0 2.37383E-4
353.0 2.699401E-4
354.0 2.346452E-4
355.0 2.639509E-4
356.0 2.302578E-4
357.0 2.62308E-4
358.0 2.273332E-4
359.0 2.56426E-4
360.0 2.232142E-4
361.0 2.551776E-4
362.0 2.205139E-4
363.0 2.515958E-4
364.0 2.189201E-4
365.0 2.500444E-4
366.0 2.16494E-4
367.0 2.443925E-4
368.0 2.122057E-4
369.0 2.435403E-4
370.0 2.095949E-4
371.0 2.379118E-4
372.0 2.055854E-4
373.0 2.362641E-4
374.0 2.036004E-4
375.0 2.280059E-4
376.0 1.981193E-4
377.0 2.303797E-4
378.0 2.030557E-4
379.0 2.200121E-4
380.0 2.002858E-4
381.0 2.123241E-4
382.0 1.99511E-4
383.0 2.040973E-4
384.0 1.95955E-4
385.0 1.980173E-4
386.0 1.954434E-4
387.0 1.919479E-4
388.0 1.989756E-4
389.0 1.905799E-4
390.0 2.076985E-4
391.0 1.913029E-4
392.0 2.177852E-4
393.0 1.956858E-4
394.0 2.086531E-4
395.0 1.90998E-4
396.0 2.007452E-4
397.0 1.954998E-4
398.0 1.997928E-4
399.0 1.974469E-4
400.0 1.913115E-4
401.0 1.984207E-4
402.0 1.907433E-4
403.0 2.062821E-4
404.0 1.897017E-4
405.0 2.211019E-4
406.0 1.947627E-4
407.0 2.281961E-4
408.0 1.955067E-4
409.0 2.244371E-4
410.0 1.928818E-4
411.0 2.263002E-4
412.0 1.922401E-4
413.0 2.224763E-4
414.0 1.902226E-4
415.0 2.234693E-4
416.0 1.895974E-4
417.0 2.202791E-4
418.0 1.878986E-4
419.0 2.210768E-4
420.0 1.872096E-4
421.0 2.180839E-4
422.0 1.855207E-4
423.0 2.189238E-4
424.0 1.851361E-4
425.0 2.161449E-4
426.0 1.836827E-4
427.0 2.17215E-4
428.0 1.834492E-4
429.0 2.144283E-4
430.0 1.820663E-4
431.0 2.152348E-4
432.0 1.816836E-4
433.0 2.119474E-4
434.0 1.799651E-4
435.0 2.125444E-4
436.0 1.79222E-4
437.0 2.088697E-4
438.0 1.771664E-4
439.0 2.093094E-4
440.0 1.762896E-4
441.0 2.052783E-4
442.0 1.739343E-4
443.0 2.059985E-4
444.0 1.730195E-4
445.0 2.019285E-4
446.0 1.705013E-4
447.0 2.028506E-4
448.0 1.696002E-4
449.0 1.966693E-4
450.0 1.669418E-4
451.0 1.954052E-4
452.0 1.656814E-4
453.0 1.917395E-4
454.0 1.679436E-4
455.0 1.909134E-4
456.0 1.661192E-4
457.0 1.753313E-4
458.0 1.670798E-4
459.0 1.74674E-4
460.0 1.653306E-4
461.0 1.676691E-4
462.0 1.671288E-4
463.0 1.623094E-4
464.0 1.702085E-4
465.0 1.626233E-4
466.0 1.800664E-4
467.0 1.645587E-4
468.0 1.906924E-4
469.0 1.69476E-4
470.0 1.829472E-4
471.0 1.67324E-4
472.0 1.761961E-4
473.0 1.715926E-4
474.0 1.76623E-4
475.0 1.742747E-4
476.0 1.695107E-4
477.0 1.77629E-4
478.0 1.709221E-4
479.0 1.865134E-4
480.0 1.699204E-4
481.0 2.017993E-4
482.0 1.761423E-4
483.0 2.106062E-4
484.0 1.778575E-4
485.0 2.061543E-4
486.0 1.756326E-4
487.0 2.093084E-4
488.0 1.758234E-4
489.0 2.065272E-4
490.0 1.748154E-4
491.0 2.08085E-4
492.0 1.747246E-4
493.0 2.058685E-4
494.0 1.738266E-4
495.0 2.070117E-4
496.0 1.736593E-4
497.0 2.04955E-4
498.0 1.735503E-4
499.0 2.067375E-4
500.0 1.733058E-4
501.0 2.047619E-4
502.0 1.724952E-4
503.0 2.054544E-4
504.0 1.719017E-4
505.0 2.033428E-4
506.0 1.711537E-4
507.0 2.046624E-4
508.0 1.711495E-4
509.0 2.024665E-4
510.0 1.703356E-4
511.0 2.034303E-4
512.0 1.699405E-4
513.0 2.006146E-4
514.0 1.688324E-4
515.0 2.013456E-4
516.0 1.680677E-4
517.0 1.980874E-4
518.0 1.6639E-4
519.0 1.984267E-4
520.0 1.654755E-4
521.0 1.949556E-4
522.0 1.637753E-4
523.0 1.959914E-4
524.0 1.626859E-4
525.0 1.924954E-4
526.0 1.606363E-4
527.0 1.922965E-4
528.0 1.601014E-4
529.0 1.860143E-4
530.0 1.561719E-4
531.0 1.883848E-4
532.0 1.60396E-4
533.0 1.779774E-4
534.0 1.566786E-4
535.0 1.728067E-4
536.0 1.608098E-4
537.0 1.66034E-4
538.0 1.580707E-4
539.0 1.638013E-4
540.0 1.588233E-4
541.0 1.546491E-4
542.0 1.597207E-4
543.0 1.547893E-4
544.0 1.69788E-4
545.0 1.569087E-4
546.0 1.887077E-4
547.0 1.664655E-4
548.0 1.768861E-4
549.0 1.621762E-4
550.0 1.714455E-4
551.0 1.643562E-4
552.0 1.673262E-4
553.0 1.655743E-4
554.0 1.632836E-4
555.0 1.690221E-4
556.0 1.619235E-4
557.0 1.752359E-4
558.0 1.608305E-4
559.0 1.89758E-4
560.0 1.668227E-4
561.0 2.017027E-4
562.0 1.700652E-4
563.0 1.98068E-4
564.0 1.679177E-4
565.0 2.012514E-4
566.0 1.679745E-4
567.0 1.989066E-4
568.0 1.670778E-4
569.0 2.001029E-4
570.0 1.669153E-4
571.0 1.983604E-4
572.0 1.662664E-4
573.0 1.991694E-4
574.0 1.66E-4
575.0 1.976001E-4
576.0 1.678216E-4
577.0 2.009147E-4
578.0 1.673116E-4
579.0 1.994708E-4
580.0 1.666293E-4
581.0 1.99933E-4
582.0 1.666286E-4
583.0 1.984434E-4
584.0 1.658088E-4
585.0 1.991111E-4
586.0 1.659764E-4
587.0 1.977531E-4
588.0 1.651457E-4
589.0 1.993964E-4
590.0 1.65951E-4
591.0 1.977274E-4
592.0 1.647791E-4
593.0 1.977709E-4
594.0 1.648762E-4
595.0 1.956455E-4
596.0 1.633008E-4
597.0 1.962423E-4
598.0 1.631262E-4
599.0 1.935155E-4
600.0 1.612134E-4
601.0 1.931872E-4
602.0 1.604401E-4
603.0 1.903168E-4
604.0 1.584968E-4
605.0 1.904084E-4
606.0 1.57559E-4
607.0 1.874469E-4
608.0 1.552345E-4
609.0 1.873019E-4
610.0 1.551198E-4
611.0 1.815126E-4
612.0 1.515236E-4
613.0 1.834769E-4
614.0 1.552903E-4
615.0 1.738095E-4
616.0 1.517848E-4
617.0 1.684156E-4
618.0 1.561135E-4
619.0 1.619127E-4
620.0 1.538834E-4
621.0 1.602051E-4
622.0 1.547988E-4
623.0 1.508292E-4
624.0 1.547945E-4
625.0 1.484016E-4
626.0 1.639044E-4
627.0 1.511469E-4
628.0 1.800464E-4
629.0 1.582347E-4
630.0 1.705182E-4
631.0 1.573284E-4
632.0 1.65618E-4
633.0 1.577508E-4
634.0 1.614709E-4
635.0 1.589013E-4
636.0 1.565191E-4
637.0 1.625033E-4
638.0 1.556507E-4
639.0 1.676591E-4
640.0 1.537879E-4
641.0 1.818532E-4
642.0 1.601646E-4
643.0 1.95079E-4
644.0 1.630297E-4
645.0 1.913155E-4
646.0 1.618728E-4
647.0 1.946982E-4
648.0 1.609593E-4
649.0 1.923601E-4
650.0 1.611625E-4
651.0 1.937402E-4
652.0 1.599727E-4
653.0 1.919746E-4
654.0 1.60539E-4
655.0 1.929534E-4
656.0 1.591379E-4
657.0 1.913647E-4
658.0 1.597158E-4
659.0 1.921706E-4
660.0 1.582303E-4
661.0 1.905475E-4
662.0 1.589308E-4
663.0 1.914898E-4
664.0 1.573663E-4
665.0 1.897878E-4
666.0 1.583661E-4
667.0 1.909743E-4
668.0 1.566558E-4
669.0 1.89052E-4
670.0 1.578251E-4
671.0 1.904929E-4
672.0 1.560019E-4
673.0 1.884366E-4
674.0 1.573958E-4
675.0 1.905885E-4
676.0 1.556252E-4
677.0 1.879457E-4
678.0 1.569732E-4
679.0 1.901361E-4
680.0 1.549077E-4
681.0 1.869743E-4
682.0 1.563741E-4
683.0 1.892731E-4
684.0 1.537663E-4
685.0 1.853136E-4
686.0 1.574965E-4
687.0 1.893158E-4
688.0 1.535631E-4
689.0 1.851044E-4
690.0 1.55079E-4
691.0 1.86682E-4
692.0 1.50994E-4
693.0 1.817952E-4
694.0 1.522042E-4
695.0 1.841983E-4
696.0 1.483239E-4
697.0 1.768355E-4
698.0 1.495882E-4
699.0 1.773949E-4
700.0 1.452354E-4
701.0 1.697278E-4
702.0 1.476999E-4
703.0 1.718864E-4
704.0 1.42549E-4
705.0 1.552884E-4
706.0 1.510478E-4
707.0 1.603233E-4
708.0 1.458482E-4
709.0 1.48305E-4
710.0 1.52408E-4
711.0 1.484834E-4
712.0 1.494279E-4
713.0 1.426043E-4
714.0 1.66524E-4
715.0 1.490808E-4
716.0 1.749523E-4
717.0 1.514726E-4
718.0 1.703123E-4
719.0 1.534293E-4
720.0 1.579763E-4
721.0 1.521203E-4
722.0 1.639161E-4
723.0 1.595522E-4
724.0 1.508842E-4
725.0 1.57527E-4
726.0 1.584117E-4
727.0 1.68052E-4
728.0 1.476945E-4
729.0 1.749227E-4
730.0 1.618874E-4
731.0 1.94431E-4
732.0 1.548683E-4
733.0 1.844761E-4
734.0 1.646232E-4
735.0 1.937811E-4
736.0 1.518054E-4
737.0 1.84648E-4
738.0 1.639642E-4
739.0 1.929478E-4
740.0 1.504309E-4
741.0 1.839653E-4
742.0 1.638641E-4
743.0 1.922905E-4
744.0 1.494336E-4
745.0 1.83204E-4
746.0 1.635594E-4
747.0 1.91708E-4
748.0 1.484916E-4
749.0 1.823641E-4
750.0 1.631909E-4
751.0 1.911637E-4
752.0 1.47702E-4
753.0 1.815911E-4
754.0 1.628797E-4
755.0 1.907323E-4
756.0 1.470786E-4
757.0 1.809558E-4
758.0 1.625951E-4
759.0 1.903726E-4
760.0 1.465401E-4
761.0 1.803831E-4
762.0 1.622842E-4
763.0 1.900193E-4
764.0 1.460375E-4
765.0 1.798515E-4
766.0 1.619688E-4
767.0 1.896952E-4
768.0 1.455793E-4
769.0 1.793684E-4
770.0 1.616578E-4
771.0 1.894099E-4
772.0 1.451577E-4
773.0 1.789348E-4
774.0 1.613624E-4
775.0 1.88587E-4
776.0 1.44298E-4
777.0 1.772567E-4
778.0 1.60009E-4
779.0 1.866549E-4
780.0 1.42438E-4
781.0 1.746917E-4
782.0 1.578267E-4
783.0 1.841527E-4
784.0 1.409107E-4
785.0 1.724589E-4
786.0 1.556667E-4
787.0 1.824872E-4
788.0 1.375263E-4
789.0 1.684844E-4
790.0 1.529425E-4
791.0 1.755298E-4
792.0 1.337776E-4
793.0 1.643338E-4
794.0 1.528623E-4
795.0 1.716128E-4
796.0 1.349291E-4
797.0 1.481812E-4
798.0 1.53572E-4
799.0 1.577526E-4
800.0 1.370605E-4
801.0 1.418492E-4
802.0 1.546532E-4
803.0 1.460903E-4
804.0 1.382564E-4
805.0 1.325546E-4
806.0 1.676048E-4
807.0 1.483467E-4
808.0 1.652875E-4
809.0 1.435344E-4
810.0 1.721251E-4
811.0 1.535056E-4
812.0 1.506049E-4
813.0 1.438147E-4
814.0 1.642711E-4
815.0 1.554636E-4
816.0 1.421687E-4
817.0 1.485016E-4
818.0 1.575907E-4
819.0 1.623948E-4
820.0 1.390024E-4
821.0 1.665777E-4
822.0 1.615597E-4
823.0 1.909162E-4
824.0 1.483294E-4
825.0 1.779047E-4
826.0 1.64308E-4
827.0 1.909679E-4
828.0 1.464687E-4
829.0 1.793357E-4
830.0 1.639474E-4
831.0 1.903791E-4
832.0 1.456741E-4
833.0 1.791709E-4
834.0 1.635883E-4
835.0 1.898357E-4
836.0 1.451228E-4
837.0 1.786629E-4
838.0 1.630602E-4
839.0 1.893326E-4
840.0 1.444592E-4
841.0 1.78031E-4
842.0 1.625364E-4
843.0 1.887955E-4
844.0 1.43871E-4
845.0 1.774564E-4
846.0 1.621098E-4
847.0 1.883519E-4
848.0 1.433846E-4
849.0 1.769873E-4
850.0 1.617554E-4
851.0 1.879785E-4
852.0 1.429485E-4
853.0 1.765502E-4
854.0 1.614143E-4
855.0 1.876058E-4
856.0 1.425109E-4
857.0 1.761093E-4
858.0 1.610618E-4
859.0 1.872341E-4
860.0 1.420752E-4
861.0 1.756981E-4
862.0 1.607166E-4
863.0 1.868592E-4
864.0 1.416701E-4
865.0 1.753641E-4
866.0 1.604199E-4
867.0 1.865332E-4
868.0 1.412922E-4
869.0 1.75076E-4
870.0 1.601367E-4
871.0 1.862165E-4
872.0 1.409266E-4
873.0 1.748097E-4
874.0 1.598613E-4
875.0 1.853073E-4
876.0 1.400457E-4
877.0 1.731708E-4
878.0 1.584028E-4
879.0 1.857165E-4
880.0 1.410754E-4
881.0 1.731495E-4
882.0 1.591749E-4
883.0 1.831437E-4
884.0 1.384282E-4
885.0 1.705472E-4
886.0 1.561192E-4
887.0 1.807155E-4
888.0 1.36178E-4
889.0 1.664473E-4
890.0 1.538754E-4
891.0 1.745393E-4
892.0 1.338291E-4
893.0 1.590485E-4
894.0 1.516509E-4
895.0 1.651038E-4
896.0 1.342227E-4
897.0 1.446621E-4
898.0 1.555443E-4
899.0 1.599241E-4
900.0 1.37707E-4
901.0 1.356238E-4
902.0 1.558499E-4
903.0 1.492137E-4
904.0 1.440103E-4
905.0 1.332637E-4
906.0 1.736179E-4
907.0 1.493955E-4
908.0 1.680808E-4
909.0 1.424981E-4
910.0 1.742869E-4
911.0 1.529092E-4
912.0 1.49987E-4
913.0 1.425166E-4
914.0 1.661708E-4
915.0 1.561418E-4
916.0 1.422819E-4
917.0 1.472036E-4
918.0 1.594315E-4
919.0 1.620917E-4
920.0 1.385999E-4
921.0 1.639736E-4
922.0 1.629104E-4
923.0 1.91079E-4
924.0 1.475917E-4
925.0 1.766435E-4
926.0 1.663095E-4
927.0 1.914065E-4
928.0 1.458108E-4
929.0 1.783121E-4
930.0 1.659583E-4
931.0 1.909252E-4
932.0 1.451405E-4
933.0 1.779789E-4
934.0 1.654777E-4
935.0 1.905654E-4
936.0 1.4471E-4
937.0 1.775478E-4
938.0 1.650243E-4
939.0 1.901236E-4
940.0 1.441621E-4
941.0 1.770114E-4
942.0 1.645415E-4
943.0 1.896406E-4
944.0 1.436772E-4
945.0 1.765177E-4
946.0 1.641576E-4
947.0 1.892533E-4
948.0 1.433028E-4
949.0 1.761311E-4
950.0 1.638583E-4
951.0 1.889361E-4
952.0 1.429852E-4
953.0 1.757757E-4
954.0 1.635778E-4
955.0 1.886173E-4
956.0 1.426688E-4
957.0 1.754113E-4
958.0 1.632897E-4
959.0 1.882938E-4
960.0 1.423523E-4
961.0 1.750525E-4
962.0 1.630007E-4
963.0 1.87991E-4
964.0 1.420478E-4
965.0 1.74723E-4
966.0 1.627155E-4
967.0 1.876957E-4
968.0 1.417398E-4
969.0 1.743956E-4
970.0 1.624147E-4
971.0 1.873991E-4
972.0 1.414271E-4
973.0 1.740911E-4
974.0 1.621137E-4
975.0 1.871097E-4
976.0 1.411326E-4
977.0 1.738111E-4
978.0 1.603492E-4
979.0 1.851987E-4
980.0 1.391681E-4
981.0 1.71843E-4
982.0 1.595025E-4
983.0 1.845399E-4
984.0 1.387278E-4
985.0 1.713475E-4
986.0 1.586093E-4
987.0 1.832314E-4
988.0 1.376027E-4
989.0 1.693329E-4
990.0 1.567375E-4
991.0 1.808669E-4
992.0 1.35556E-4
993.0 1.667879E-4
994.0 1.541908E-4
995.0 1.778522E-4
996.0 1.326801E-4
997.0 1.641901E-4
998.0 1.507285E-4
999.0 1.745593E-4
1000.0 1.310983E-4
