1.0 1.0
2.0 0.007352905
3.0 0.004603601
4.0 0.003057848
5.0 0.002307223
6.0 0.002023737
7.0 0.001871643
8.0 0.00174641
9.0 0.001615052
10.0 0.001483411
11.0 0.00135922
12.0 0.001245973
13.0 0.001149487
14.0 0.001069344
15.0 0.001003531
16.0 9.480229E-4
17.0 9.005526E-4
18.0 8.594973E-4
19.0 8.226662E-4
20.0 7.885488E-4
21.0 7.561155E-4
22.0 7.256363E-4
23.0 6.973009E-4
24.0 6.713421E-4
25.0 6.474953E-4
26.0 6.258264E-4
27.0 6.063348E-4
28.0 5.889296E-4
29.0 5.733478E-4
30.0 5.595787E-4
31.0 5.473051E-4
32.0 5.365419E-4
33.0 5.272749E-4
34.0 5.19531E-4
35.0 5.132835E-4
36.0 5.083364E-4
37.0 5.054617E-4
38.0 5.027563E-4
39.0 5.008477E-4
40.0 4.998681E-4
41.0 4.98865E-4
42.0 4.987293E-4
43.0 4.98246E-4
44.0 4.982137E-4
45.0 4.981755E-4
46.0 4.985195E-4
47.0 4.984995E-4
48.0 4.989274E-4
49.0 4.98954E-4
50.0 4.991811E-4
51.0 4.99039E-4
52.0 4.988308E-4
53.0 4.983204E-4
54.0 4.981231E-4
55.0 4.973377E-4
56.0 4.965888E-4
57.0 4.956484E-4
58.0 4.947699E-4
59.0 4.931351E-4
60.0 4.917757E-4
61.0 4.904524E-4
62.0 4.892709E-4
63.0 4.876158E-4
64.0 4.861933E-4
65.0 4.845939E-4
66.0 4.829325E-4
67.0 4.808122E-4
68.0 4.788946E-4
69.0 4.768252E-4
70.0 4.747765E-4
71.0 4.722324E-4
72.0 4.698055E-4
73.0 4.673191E-4
74.0 4.64993E-4
75.0 4.624041E-4
76.0 4.59966E-4
77.0 4.575259E-4
78.0 4.550717E-4
79.0 4.521997E-4
80.0 4.494883E-4
81.0 4.467482E-4
82.0 4.441421E-4
83.0 4.413001E-4
84.0 4.383389E-4
85.0 4.354611E-4
86.0 4.327865E-4
87.0 4.299311E-4
88.0 4.272042E-4
89.0 4.245196E-4
90.0 4.220048E-4
91.0 4.19224E-4
92.0 4.166085E-4
93.0 4.138682E-4
94.0 4.113899E-4
95.0 4.085395E-4
96.0 4.058699E-4
97.0 4.03055E-4
98.0 4.005187E-4
99.0 3.977321E-4
100.0 3.951965E-4
101.0 3.925993E-4
102.0 3.904532E-4
103.0 3.879195E-4
104.0 3.856182E-4
105.0 3.831851E-4
106.0 3.810626E-4
107.0 3.78658E-4
108.0 3.764512E-4
109.0 3.740846E-4
110.0 3.719556E-4
111.0 3.695823E-4
112.0 3.675211E-4
113.0 3.652894E-4
114.0 3.633812E-4
115.0 3.61231E-4
116.0 3.593329E-4
117.0 3.573081E-4
118.0 3.555592E-4
119.0 3.536439E-4
120.0 3.519262E-4
121.0 3.501547E-4
122.0 3.485497E-4
123.0 3.468032E-4
124.0 3.452757E-4
125.0 3.436533E-4
126.0 3.422782E-4
127.0 3.406751E-4
128.0 3.392763E-4
129.0 3.378587E-4
130.0 3.368219E-4
131.0 3.354514E-4
132.0 3.344037E-4
133.0 3.331216E-4
134.0 3.322123E-4
135.0 3.307999E-4
136.0 3.297691E-4
137.0 3.284258E-4
138.0 3.275477E-4
139.0 3.261137E-4
140.0 3.250963E-4
141.0 3.239031E-4
142.0 3.230599E-4
143.0 3.219116E-4
144.0 3.211982E-4
145.0 3.201852E-4
146.0 3.196385E-4
147.0 3.186503E-4
148.0 3.18081E-4
149.0 3.173151E-4
150.0 3.169497E-4
151.0 3.161139E-4
152.0 3.156528E-4
153.0 3.148946E-4
154.0 3.145534E-4
155.0 3.136957E-4
156.0 3.131547E-4
157.0 3.125805E-4
158.0 3.123124E-4
159.0 3.118297E-4
160.0 3.115655E-4
161.0 3.111561E-4
162.0 3.11018E-4
163.0 3.105391E-4
164.0 3.101754E-4
165.0 3.09811E-4
166.0 3.094638E-4
167.0 3.091354E-4
168.0 3.088515E-4
169.0 3.085429E-4
170.0 3.082518E-4
171.0 3.080127E-4
172.0 3.079903E-4
173.0 3.075514E-4
174.0 3.073114E-4
175.0 3.070937E-4
176.0 3.068983E-4
177.0 3.066986E-4
178.0 3.064942E-4
179.0 3.062402E-4
180.0 3.060364E-4
181.0 3.05776E-4
182.0 3.056633E-4
183.0 3.053978E-4
184.0 3.053482E-4
185.0 3.051142E-4
186.0 3.050377E-4
187.0 3.047863E-4
188.0 3.048212E-4
189.0 3.047072E-4
190.0 3.046613E-4
191.0 3.04455E-4
192.0 3.045151E-4
193.0 3.043709E-4
194.0 3.043785E-4
195.0 3.041926E-4
196.0 3.042567E-4
197.0 3.041819E-4
198.0 3.041799E-4
199.0 3.039871E-4
200.0 3.040806E-4
201.0 3.041177E-4
202.0 3.040883E-4
203.0 3.039056E-4
204.0 3.04016E-4
205.0 3.03861E-4
206.0 3.0399E-4
207.0 3.038869E-4
208.0 3.040059E-4
209.0 3.038743E-4
210.0 3.039563E-4
211.0 3.038744E-4
212.0 3.039386E-4
213.0 3.038395E-4
214.0 3.038692E-4
215.0 3.037028E-4
216.0 3.037935E-4
217.0 3.036613E-4
218.0 3.036807E-4
219.0 3.034858E-4
220.0 3.035124E-4
221.0 3.033108E-4
222.0 3.032481E-4
223.0 3.029832E-4
224.0 3.028517E-4
225.0 3.024942E-4
226.0 3.022297E-4
227.0 3.017778E-4
228.0 3.013423E-4
229.0 3.007541E-4
230.0 3.000655E-4
231.0 2.992622E-4
232.0 2.983019E-4
233.0 2.972521E-4
234.0 2.959401E-4
235.0 2.94556E-4
236.0 2.928364E-4
237.0 2.910662E-4
238.0 2.889089E-4
239.0 2.867141E-4
240.0 2.840638E-4
241.0 2.814512E-4
242.0 2.782895E-4
243.0 2.750833E-4
244.0 2.715497E-4
245.0 2.678793E-4
246.0 2.639611E-4
247.0 2.59848E-4
248.0 2.556098E-4
249.0 2.511888E-4
250.0 2.467661E-4
251.0 2.421723E-4
252.0 2.377096E-4
253.0 2.331351E-4
254.0 2.288619E-4
255.0 2.244712E-4
256.0 2.205205E-4
257.0 2.164483E-4
258.0 2.128918E-4
259.0 2.092859E-4
260.0 2.062264E-4
261.0 2.031046E-4
262.0 2.005541E-4
263.0 1.979847E-4
264.0 1.960091E-4
265.0 1.939804E-4
266.0 1.926036E-4
267.0 1.911749E-4
268.0 1.901833E-4
269.0 1.888636E-4
270.0 1.878733E-4
271.0 1.865107E-4
272.0 1.854563E-4
273.0 1.839853E-4
274.0 1.827727E-4
275.0 1.811681E-4
276.0 1.798036E-4
277.0 1.780311E-4
278.0 1.764948E-4
279.0 1.745711E-4
280.0 1.728756E-4
281.0 1.707895E-4
282.0 1.689277E-4
283.0 1.667285E-4
284.0 1.647679E-4
285.0 1.62467E-4
286.0 1.60404E-4
287.0 1.580606E-4
288.0 1.559459E-4
289.0 1.535593E-4
290.0 1.513946E-4
291.0 1.490173E-4
292.0 1.468665E-4
293.0 1.445073E-4
294.0 1.423561E-4
295.0 1.4005E-4
296.0 1.379581E-4
297.0 1.35693E-4
298.0 1.336434E-4
299.0 1.314725E-4
300.0 1.295072E-4
301.0 1.274098E-4
302.0 1.25504E-4
303.0 1.23524E-4
304.0 1.217193E-4
305.0 1.19837E-4
306.0 1.181041E-4
307.0 1.163538E-4
308.0 1.147161E-4
309.0 1.130878E-4
310.0 1.115346E-4
311.0 1.100174E-4
312.0 1.085511E-4
313.0 1.071687E-4
314.0 1.057865E-4
315.0 1.045255E-4
316.0 1.032361E-4
317.0 1.021042E-4
318.0 1.009004E-4
319.0 9.989557E-5
320.0 9.877422E-5
321.0 9.781788E-5
322.0 9.684783E-5
323.0 9.599091E-5
324.0 9.513532E-5
325.0 9.435108E-5
326.0 9.358712E-5
327.0 9.285818E-5
328.0 9.222625E-5
329.0 9.157349E-5
330.0 9.104927E-5
331.0 9.044994E-5
332.0 9.005514E-5
333.0 8.947902E-5
334.0 8.914246E-5
335.0 8.863811E-5
336.0 8.835163E-5
337.0 8.793142E-5
338.0 8.772329E-5
339.0 8.734689E-5
340.0 8.718293E-5
341.0 8.68779E-5
342.0 8.67793E-5
343.0 8.652478E-5
344.0 8.647573E-5
345.0 8.629045E-5
346.0 8.629956E-5
347.0 8.61459E-5
348.0 8.618351E-5
349.0 8.607118E-5
350.0 8.615095E-5
351.0 8.605339E-5
352.0 8.614852E-5
353.0 8.607708E-5
354.0 8.620131E-5
355.0 8.612994E-5
356.0 8.625831E-5
357.0 8.620783E-5
358.0 8.635952E-5
359.0 8.630232E-5
360.0 8.644985E-5
361.0 8.640622E-5
362.0 8.656824E-5
363.0 8.650976E-5
364.0 8.666952E-5
365.0 8.661513E-5
366.0 8.677995E-5
367.0 8.671191E-5
368.0 8.685692E-5
369.0 8.679684E-5
370.0 8.6948E-5
371.0 8.68656E-5
372.0 8.699225E-5
373.0 8.690768E-5
374.0 8.703953E-5
375.0 8.693363E-5
376.0 8.700855E-5
377.0 8.692031E-5
378.0 8.699424E-5
379.0 8.689697E-5
380.0 8.688286E-5
381.0 8.682797E-5
382.0 8.678696E-5
383.0 8.67223E-5
384.0 8.664895E-5
385.0 8.658113E-5
386.0 8.647154E-5
387.0 8.642147E-5
388.0 8.628089E-5
389.0 8.623034E-5
390.0 8.606388E-5
391.0 8.602652E-5
392.0 8.582935E-5
393.0 8.580933E-5
394.0 8.558605E-5
395.0 8.549447E-5
396.0 8.531706E-5
397.0 8.520996E-5
398.0 8.505591E-5
399.0 8.491757E-5
400.0 8.477127E-5
401.0 8.459573E-5
402.0 8.447892E-5
403.0 8.42803E-5
404.0 8.418577E-5
405.0 8.395476E-5
406.0 8.391067E-5
407.0 8.363713E-5
408.0 8.360883E-5
409.0 8.329514E-5
410.0 8.323406E-5
411.0 8.294805E-5
412.0 8.289998E-5
413.0 8.259165E-5
414.0 8.252896E-5
415.0 8.223573E-5
416.0 8.218199E-5
417.0 8.187654E-5
418.0 8.181092E-5
419.0 8.151793E-5
420.0 8.146143E-5
421.0 8.115786E-5
422.0 8.109165E-5
423.0 8.079961E-5
424.0 8.074376E-5
425.0 8.04421E-5
426.0 8.037745E-5
427.0 8.008789E-5
428.0 8.003451E-5
429.0 7.973571E-5
430.0 7.967599E-5
431.0 7.93864E-5
432.0 7.933731E-5
433.0 7.903911E-5
434.0 7.898069E-5
435.0 7.869727E-5
436.0 7.864938E-5
437.0 7.835724E-5
438.0 7.829831E-5
439.0 7.802067E-5
440.0 7.797241E-5
441.0 7.768576E-5
442.0 7.762567E-5
443.0 7.736064E-5
444.0 7.730472E-5
445.0 7.702669E-5
446.0 7.6959E-5
447.0 7.669912E-5
448.0 7.664526E-5
449.0 7.637503E-5
450.0 7.629958E-5
451.0 7.604916E-5
452.0 7.598046E-5
453.0 7.572424E-5
454.0 7.563879E-5
455.0 7.543697E-5
456.0 7.532781E-5
457.0 7.512476E-5
458.0 7.497918E-5
459.0 7.48322E-5
460.0 7.467877E-5
461.0 7.453282E-5
462.0 7.436471E-5
463.0 7.424847E-5
464.0 7.405741E-5
465.0 7.395773E-5
466.0 7.376055E-5
467.0 7.368776E-5
468.0 7.347011E-5
469.0 7.34322E-5
470.0 7.319819E-5
471.0 7.309716E-5
472.0 7.291625E-5
473.0 7.28053E-5
474.0 7.265628E-5
475.0 7.252624E-5
476.0 7.23897E-5
477.0 7.222726E-5
478.0 7.213231E-5
479.0 7.196298E-5
480.0 7.189153E-5
481.0 7.169471E-5
482.0 7.166913E-5
483.0 7.143125E-5
484.0 7.143263E-5
485.0 7.116714E-5
486.0 7.113835E-5
487.0 7.089578E-5
488.0 7.088036E-5
489.0 7.062158E-5
490.0 7.059584E-5
491.0 7.035183E-5
492.0 7.033408E-5
493.0 7.00799E-5
494.0 7.005291E-5
495.0 6.980875E-5
496.0 6.978861E-5
497.0 6.953547E-5
498.0 6.95073E-5
499.0 6.92648E-5
500.0 6.924308E-5
501.0 6.899164E-5
502.0 6.896094E-5
503.0 6.87175E-5
504.0 6.869747E-5
505.0 6.84423E-5
506.0 6.841417E-5
507.0 6.816839E-5
508.0 6.814907E-5
509.0 6.789435E-5
510.0 6.786654E-5
511.0 6.7625E-5
512.0 6.759981E-5
513.0 6.734315E-5
514.0 6.731276E-5
515.0 6.707486E-5
516.0 6.70477E-5
517.0 6.679686E-5
518.0 6.675874E-5
519.0 6.652002E-5
520.0 6.649034E-5
521.0 6.624291E-5
522.0 6.620172E-5
523.0 6.596686E-5
524.0 6.593525E-5
525.0 6.568874E-5
526.0 6.564494E-5
527.0 6.541048E-5
528.0 6.537314E-5
529.0 6.512788E-5
530.0 6.506827E-5
531.0 6.484314E-5
532.0 6.47994E-5
533.0 6.458509E-5
534.0 6.448681E-5
535.0 6.43143E-5
536.0 6.419741E-5
537.0 6.404771E-5
538.0 6.391601E-5
539.0 6.378418E-5
540.0 6.364152E-5
541.0 6.352382E-5
542.0 6.334969E-5
543.0 6.325474E-5
544.0 6.307533E-5
545.0 6.300766E-5
546.0 6.281197E-5
547.0 6.280203E-5
548.0 6.256768E-5
549.0 6.248048E-5
550.0 6.230438E-5
551.0 6.219846E-5
552.0 6.204168E-5
553.0 6.191982E-5
554.0 6.178912E-5
555.0 6.164136E-5
556.0 6.154623E-5
557.0 6.138324E-5
558.0 6.130935E-5
559.0 6.112597E-5
560.0 6.10955E-5
561.0 6.087461E-5
562.0 6.088424E-5
563.0 6.062114E-5
564.0 6.05993E-5
565.0 6.036168E-5
566.0 6.035158E-5
567.0 6.009889E-5
568.0 6.008092E-5
569.0 5.984088E-5
570.0 5.982926E-5
571.0 5.958211E-5
572.0 5.956398E-5
573.0 5.932549E-5
574.0 5.931277E-5
575.0 5.906872E-5
576.0 5.905113E-5
577.0 5.882846E-5
578.0 5.880972E-5
579.0 5.857356E-5
580.0 5.855217E-5
581.0 5.831844E-5
582.0 5.830436E-5
583.0 5.806633E-5
584.0 5.804763E-5
585.0 5.781595E-5
586.0 5.780431E-5
587.0 5.756735E-5
588.0 5.754918E-5
589.0 5.732251E-5
590.0 5.73091E-5
591.0 5.707014E-5
592.0 5.705439E-5
593.0 5.683173E-5
594.0 5.681691E-5
595.0 5.658164E-5
596.0 5.656317E-5
597.0 5.634238E-5
598.0 5.632744E-5
599.0 5.60976E-5
600.0 5.607379E-5
601.0 5.585415E-5
602.0 5.583473E-5
603.0 5.560962E-5
604.0 5.558179E-5
605.0 5.536683E-5
606.0 5.534676E-5
607.0 5.512497E-5
608.0 5.509609E-5
609.0 5.488459E-5
610.0 5.486299E-5
611.0 5.46439E-5
612.0 5.460046E-5
613.0 5.439925E-5
614.0 5.437066E-5
615.0 5.41818E-5
616.0 5.410268E-5
617.0 5.395191E-5
618.0 5.385444E-5
619.0 5.372848E-5
620.0 5.361831E-5
621.0 5.351173E-5
622.0 5.339079E-5
623.0 5.329572E-5
624.0 5.314366E-5
625.0 5.30695E-5
626.0 5.291264E-5
627.0 5.286432E-5
628.0 5.269088E-5
629.0 5.269347E-5
630.0 5.24837E-5
631.0 5.242391E-5
632.0 5.227535E-5
633.0 5.219048E-5
634.0 5.2057E-5
635.0 5.196021E-5
636.0 5.184995E-5
637.0 5.172765E-5
638.0 5.16574E-5
639.0 5.152007E-5
640.0 5.146607E-5
641.0 5.131041E-5
642.0 5.130243E-5
643.0 5.111618E-5
644.0 5.114512E-5
645.0 5.090695E-5
646.0 5.091002E-5
647.0 5.070197E-5
648.0 5.071442E-5
649.0 5.048988E-5
650.0 5.049679E-5
651.0 5.028435E-5
652.0 5.029468E-5
653.0 5.007498E-5
654.0 5.008177E-5
655.0 4.987063E-5
656.0 4.987941E-5
657.0 4.966538E-5
658.0 4.966918E-5
659.0 4.945714E-5
660.0 4.946685E-5
661.0 4.925504E-5
662.0 4.926088E-5
663.0 4.905303E-5
664.0 4.906076E-5
665.0 4.884732E-5
666.0 4.885425E-5
667.0 4.864893E-5
668.0 4.86588E-5
669.0 4.844637E-5
670.0 4.84541E-5
671.0 4.825011E-5
672.0 4.826078E-5
673.0 4.804893E-5
674.0 4.805739E-5
675.0 4.785491E-5
676.0 4.78679E-5
677.0 4.76559E-5
678.0 4.766387E-5
679.0 4.746394E-5
680.0 4.747731E-5
681.0 4.726603E-5
682.0 4.727366E-5
683.0 4.707603E-5
684.0 4.708921E-5
685.0 4.687858E-5
686.0 4.688562E-5
687.0 4.670239E-5
688.0 4.670779E-5
689.0 4.65022E-5
690.0 4.650683E-5
691.0 4.631364E-5
692.0 4.632243E-5
693.0 4.611514E-5
694.0 4.611805E-5
695.0 4.592939E-5
696.0 4.594009E-5
697.0 4.573317E-5
698.0 4.572391E-5
699.0 4.554443E-5
700.0 4.553623E-5
701.0 4.534835E-5
702.0 4.53175E-5
703.0 4.51806E-5
704.0 4.513662E-5
705.0 4.498806E-5
706.0 4.492468E-5
707.0 4.483965E-5
708.0 4.475888E-5
709.0 4.465122E-5
710.0 4.454991E-5
711.0 4.449318E-5
712.0 4.437434E-5
713.0 4.430969E-5
714.0 4.418148E-5
715.0 4.416673E-5
716.0 4.401445E-5
717.0 4.402537E-5
718.0 4.384518E-5
719.0 4.381391E-5
720.0 4.368523E-5
721.0 4.36161E-5
722.0 4.35131E-5
723.0 4.345304E-5
724.0 4.336407E-5
725.0 4.32556E-5
726.0 4.320616E-5
727.0 4.310539E-5
728.0 4.306839E-5
729.0 4.292562E-5
730.0 4.293052E-5
731.0 4.278399E-5
732.0 4.28275E-5
733.0 4.2602E-5
734.0 4.262555E-5
735.0 4.246106E-5
736.0 4.248791E-5
737.0 4.227038E-5
738.0 4.229995E-5
739.0 4.212973E-5
740.0 4.215469E-5
741.0 4.194198E-5
742.0 4.19728E-5
743.0 4.180462E-5
744.0 4.182763E-5
745.0 4.161681E-5
746.0 4.16481E-5
747.0 4.14813E-5
748.0 4.150464E-5
749.0 4.129402E-5
750.0 4.132648E-5
751.0 4.11607E-5
752.0 4.118508E-5
753.0 4.097431E-5
754.0 4.100809E-5
755.0 4.08437E-5
756.0 4.086914E-5
757.0 4.06586E-5
758.0 4.069327E-5
759.0 4.053036E-5
760.0 4.055638E-5
761.0 4.034612E-5
762.0 4.038113E-5
763.0 4.021962E-5
764.0 4.024597E-5
765.0 4.003613E-5
766.0 4.007132E-5
767.0 3.991129E-5
768.0 3.993808E-5
769.0 3.972892E-5
770.0 3.976435E-5
771.0 3.960597E-5
772.0 3.963334E-5
773.0 3.942504E-5
774.0 3.946076E-5
775.0 3.930405E-5
776.0 3.933001E-5
777.0 3.912313E-5
778.0 3.915588E-5
779.0 3.900227E-5
780.0 3.902572E-5
781.0 3.882126E-5
782.0 3.885035E-5
783.0 3.87004E-5
784.0 3.87209E-5
785.0 3.852284E-5
786.0 3.854499E-5
787.0 3.839851E-5
788.0 3.841687E-5
789.0 3.821811E-5
790.0 3.823563E-5
791.0 3.809537E-5
792.0 3.809731E-5
793.0 3.790881E-5
794.0 3.791388E-5
795.0 3.781156E-5
796.0 3.778485E-5
797.0 3.763344E-5
798.0 3.75883E-5
799.0 3.753715E-5
800.0 3.74696E-5
801.0 3.736902E-5
802.0 3.729413E-5
803.0 3.726974E-5
804.0 3.716202E-5
805.0 3.70934E-5
806.0 3.698871E-5
807.0 3.701947E-5
808.0 3.687963E-5
809.0 3.689156E-5
810.0 3.673E-5
811.0 3.673562E-5
812.0 3.661967E-5
813.0 3.655816E-5
814.0 3.646999E-5
815.0 3.644601E-5
816.0 3.636449E-5
817.0 3.626797E-5
818.0 3.623764E-5
819.0 3.616863E-5
820.0 3.614153E-5
821.0 3.601192E-5
822.0 3.604384E-5
823.0 3.592749E-5
824.0 3.598909E-5
825.0 3.577424E-5
826.0 3.582069E-5
827.0 3.567897E-5
828.0 3.571875E-5
829.0 3.551592E-5
830.0 3.556563E-5
831.0 3.541921E-5
832.0 3.54572E-5
833.0 3.525837E-5
834.0 3.530768E-5
835.0 3.516189E-5
836.0 3.519797E-5
837.0 3.500145E-5
838.0 3.505011E-5
839.0 3.490552E-5
840.0 3.494203E-5
841.0 3.474572E-5
842.0 3.479533E-5
843.0 3.465097E-5
844.0 3.468852E-5
845.0 3.449206E-5
846.0 3.454288E-5
847.0 3.439894E-5
848.0 3.44373E-5
849.0 3.424101E-5
850.0 3.429267E-5
851.0 3.414943E-5
852.0 3.41882E-5
853.0 3.399225E-5
854.0 3.404441E-5
855.0 3.390192E-5
856.0 3.394087E-5
857.0 3.374546E-5
858.0 3.379784E-5
859.0 3.365627E-5
860.0 3.369531E-5
861.0 3.350065E-5
862.0 3.355321E-5
863.0 3.341272E-5
864.0 3.345172E-5
865.0 3.325818E-5
866.0 3.331104E-5
867.0 3.317155E-5
868.0 3.321053E-5
869.0 3.301817E-5
870.0 3.307144E-5
871.0 3.293286E-5
872.0 3.29718E-5
873.0 3.278058E-5
874.0 3.283429E-5
875.0 3.269646E-5
876.0 3.273315E-5
877.0 3.254368E-5
878.0 3.259429E-5
879.0 3.245881E-5
880.0 3.250617E-5
881.0 3.231387E-5
882.0 3.235968E-5
883.0 3.222922E-5
884.0 3.22532E-5
885.0 3.207466E-5
886.0 3.211417E-5
887.0 3.198692E-5
888.0 3.200978E-5
889.0 3.183266E-5
890.0 3.186107E-5
891.0 3.174168E-5
892.0 3.174491E-5
893.0 3.159013E-5
894.0 3.159493E-5
895.0 3.151866E-5
896.0 3.147998E-5
897.0 3.136891E-5
898.0 3.133825E-5
899.0 3.132467E-5
900.0 3.126406E-5
901.0 3.117819E-5
902.0 3.109644E-5
903.0 3.111033E-5
904.0 3.101442E-5
905.0 3.097942E-5
906.0 3.086972E-5
907.0 3.092775E-5
908.0 3.078565E-5
909.0 3.081441E-5
910.0 3.066049E-5
911.0 3.068959E-5
912.0 3.05753E-5
913.0 3.053254E-5
914.0 3.045213E-5
915.0 3.045357E-5
916.0 3.03775E-5
917.0 3.029881E-5
918.0 3.027063E-5
919.0 3.022677E-5
920.0 3.020238E-5
921.0 3.008941E-5
922.0 3.012618E-5
923.0 3.003401E-5
924.0 3.009991E-5
925.0 2.989991E-5
926.0 2.995554E-5
927.0 2.983503E-5
928.0 2.987906E-5
929.0 2.969195E-5
930.0 2.975107E-5
931.0 2.96255E-5
932.0 2.966829E-5
933.0 2.948491E-5
934.0 2.954187E-5
935.0 2.941838E-5
936.0 2.945965E-5
937.0 2.927777E-5
938.0 2.933415E-5
939.0 2.921155E-5
940.0 2.925322E-5
941.0 2.907144E-5
942.0 2.912878E-5
943.0 2.900617E-5
944.0 2.904905E-5
945.0 2.886704E-5
946.0 2.892561E-5
947.0 2.880321E-5
948.0 2.884698E-5
949.0 2.866505E-5
950.0 2.872441E-5
951.0 2.860245E-5
952.0 2.864658E-5
953.0 2.846491E-5
954.0 2.852456E-5
955.0 2.840317E-5
956.0 2.844733E-5
957.0 2.826613E-5
958.0 2.832575E-5
959.0 2.82051E-5
960.0 2.824918E-5
961.0 2.806865E-5
962.0 2.812818E-5
963.0 2.800841E-5
964.0 2.805251E-5
965.0 2.787277E-5
966.0 2.793222E-5
967.0 2.781338E-5
968.0 2.785753E-5
969.0 2.767862E-5
970.0 2.773807E-5
971.0 2.762015E-5
972.0 2.766434E-5
973.0 2.748619E-5
974.0 2.754564E-5
975.0 2.742851E-5
976.0 2.747278E-5
977.0 2.729524E-5
978.0 2.735476E-5
979.0 2.722476E-5
980.0 2.727156E-5
981.0 2.709033E-5
982.0 2.715358E-5
983.0 2.703312E-5
984.0 2.708244E-5
985.0 2.690265E-5
986.0 2.69658E-5
987.0 2.684556E-5
988.0 2.689254E-5
989.0 2.671416E-5
990.0 2.677357E-5
991.0 2.665567E-5
992.0 2.669907E-5
993.0 2.652427E-5
994.0 2.657818E-5
995.0 2.646144E-5
996.0 2.650016E-5
997.0 2.632791E-5
998.0 2.638133E-5
999.0 2.626499E-5
1000.0 2.629674E-5
