1.0 1.0
2.0 0.01665687
3.0 0.007967315
4.0 0.004841722
5.0 0.003413841
6.0 0.002742712
7.0 0.002380443
8.0 0.002123365
9.0 0.001896355
10.0 0.001689404
11.0 0.001516178
12.0 0.001382063
13.0 0.001287332
14.0 0.00122121
15.0 0.001177167
16.0 0.001149296
17.0 0.001131956
18.0 0.001121161
19.0 0.001115552
20.0 0.001114608
21.0 0.001117948
22.0 0.001124162
23.0 0.001134776
24.0 0.00114969
25.0 0.001168754
26.0 0.001190302
27.0 0.001213558
28.0 0.001237194
29.0 0.001261987
30.0 0.001288493
31.0 0.001316759
32.0 0.0013468
33.0 0.00137965
34.0 0.001415015
35.0 0.001451496
36.0 0.001489662
37.0 0.00152773
38.0 0.001560733
39.0 0.001593077
40.0 0.00162385
41.0 0.001652512
42.0 0.001679348
43.0 0.001703881
44.0 0.001726094
45.0 0.001747176
46.0 0.001766703
47.0 0.001784377
48.0 0.001800186
49.0 0.001814354
50.0 0.001826211
51.0 0.001835918
52.0 0.001842765
53.0 0.001847449
54.0 0.001849823
55.0 0.001850677
56.0 0.001849385
57.0 0.00184674
58.0 0.001842086
59.0 0.001836126
60.0 0.001828514
61.0 0.001820256
62.0 0.001810698
63.0 0.001799746
64.0 0.001788143
65.0 0.001776257
66.0 0.001762906
67.0 0.001748854
68.0 0.001735171
69.0 0.001721631
70.0 0.001707837
71.0 0.001694157
72.0 0.00168035
73.0 0.001666897
74.0 0.001654116
75.0 0.001642111
76.0 0.001630242
77.0 0.001619175
78.0 0.001608088
79.0 0.001596832
80.0 0.001585502
81.0 0.001574121
82.0 0.001563463
83.0 0.001552464
84.0 0.001541532
85.0 0.00153046
86.0 0.001519767
87.0 0.001508337
88.0 0.001497658
89.0 0.001487375
90.0 0.001478357
91.0 0.001469065
92.0 0.001459912
93.0 0.001451024
94.0 0.001442414
95.0 0.001432825
96.0 0.001423661
97.0 0.001414745
98.0 0.001406318
99.0 0.001396786
100.0 0.001387373
101.0 0.001377902
102.0 0.001369258
103.0 0.001359604
104.0 0.001350972
105.0 0.001342622
106.0 0.001334938
107.0 0.001325906
108.0 0.00131731
109.0 0.001308166
110.0 0.00129933
111.0 0.001289708
112.0 0.00128058
113.0 0.001271025
114.0 0.001262061
115.0 0.001251726
116.0 0.001241677
117.0 0.001231873
118.0 0.001223027
119.0 0.001213307
120.0 0.001204551
121.0 0.001195624
122.0 0.00118758
123.0 0.00117878
124.0 0.001171148
125.0 0.001163011
126.0 0.001156207
127.0 0.001147872
128.0 0.001140562
129.0 0.001132879
130.0 0.001126449
131.0 0.00111833
132.0 0.00111145
133.0 0.001104104
134.0 0.001098277
135.0 0.001091238
136.0 0.001085482
137.0 0.00107889
138.0 0.001073775
139.0 0.001066786
140.0 0.001060754
141.0 0.00105407
142.0 0.001048581
143.0 0.001042091
144.0 0.001036611
145.0 0.001030074
146.0 0.001024624
147.0 0.001018196
148.0 0.001012655
149.0 0.001006641
150.0 0.001001817
151.0 9.961687E-4
152.0 9.915453E-4
153.0 9.861456E-4
154.0 9.817708E-4
155.0 9.760935E-4
156.0 9.709475E-4
157.0 9.658474E-4
158.0 9.611427E-4
159.0 9.560949E-4
160.0 9.513366E-4
161.0 9.465528E-4
162.0 9.422858E-4
163.0 9.374503E-4
164.0 9.327209E-4
165.0 9.286105E-4
166.0 9.24504E-4
167.0 9.207513E-4
168.0 9.171552E-4
169.0 9.132617E-4
170.0 9.094724E-4
171.0 9.055954E-4
172.0 9.029362E-4
173.0 8.980962E-4
174.0 8.948083E-4
175.0 8.916277E-4
176.0 8.890109E-4
177.0 8.86119E-4
178.0 8.83639E-4
179.0 8.80914E-4
180.0 8.790115E-4
181.0 8.767103E-4
182.0 8.75266E-4
183.0 8.731982E-4
184.0 8.719591E-4
185.0 8.699937E-4
186.0 8.684484E-4
187.0 8.66229E-4
188.0 8.653896E-4
189.0 8.639597E-4
190.0 8.627228E-4
191.0 8.609533E-4
192.0 8.603422E-4
193.0 8.589651E-4
194.0 8.582805E-4
195.0 8.568283E-4
196.0 8.565437E-4
197.0 8.555132E-4
198.0 8.547938E-4
199.0 8.531726E-4
200.0 8.530299E-4
201.0 8.524623E-4
202.0 8.515627E-4
203.0 8.499807E-4
204.0 8.498975E-4
205.0 8.485156E-4
206.0 8.485069E-4
207.0 8.475535E-4
208.0 8.476117E-4
209.0 8.467586E-4
210.0 8.469828E-4
211.0 8.464281E-4
212.0 8.466962E-4
213.0 8.463021E-4
214.0 8.46584E-4
215.0 8.46129E-4
216.0 8.469086E-4
217.0 8.468958E-4
218.0 8.477193E-4
219.0 8.477965E-4
220.0 8.489307E-4
221.0 8.493971E-4
222.0 8.505548E-4
223.0 8.512351E-4
224.0 8.524627E-4
225.0 8.53301E-4
226.0 8.544619E-4
227.0 8.554077E-4
228.0 8.562285E-4
229.0 8.570763E-4
230.0 8.572434E-4
231.0 8.575635E-4
232.0 8.570223E-4
233.0 8.565554E-4
234.0 8.548432E-4
235.0 8.531109E-4
236.0 8.498181E-4
237.0 8.462066E-4
238.0 8.409895E-4
239.0 8.352253E-4
240.0 8.275645E-4
241.0 8.192565E-4
242.0 8.089533E-4
243.0 7.975293E-4
244.0 7.846715E-4
245.0 7.704408E-4
246.0 7.549276E-4
247.0 7.379911E-4
248.0 7.199903E-4
249.0 7.008892E-4
250.0 6.809474E-4
251.0 6.601845E-4
252.0 6.38885E-4
253.0 6.171226E-4
254.0 5.951822E-4
255.0 5.730851E-4
256.0 5.511035E-4
257.0 5.293612E-4
258.0 5.078549E-4
259.0 4.869342E-4
260.0 4.664671E-4
261.0 4.471691E-4
262.0 4.278423E-4
263.0 4.101058E-4
264.0 3.926741E-4
265.0 3.766961E-4
266.0 3.610671E-4
267.0 3.468613E-4
268.0 3.329847E-4
269.0 3.204022E-4
270.0 3.084949E-4
271.0 2.979234E-4
272.0 2.878973E-4
273.0 2.791787E-4
274.0 2.708268E-4
275.0 2.637699E-4
276.0 2.57127E-4
277.0 2.516179E-4
278.0 2.464033E-4
279.0 2.423053E-4
280.0 2.383117E-4
281.0 2.35195E-4
282.0 2.320758E-4
283.0 2.297483E-4
284.0 2.274347E-4
285.0 2.257216E-4
286.0 2.239817E-4
287.0 2.227325E-4
288.0 2.213632E-4
289.0 2.204198E-4
290.0 2.193005E-4
291.0 2.185024E-4
292.0 2.175519E-4
293.0 2.170234E-4
294.0 2.156576E-4
295.0 2.145553E-4
296.0 2.128408E-4
297.0 2.111496E-4
298.0 2.089546E-4
299.0 2.068092E-4
300.0 2.042305E-4
301.0 2.016865E-4
302.0 1.987489E-4
303.0 1.958706E-4
304.0 1.926408E-4
305.0 1.894445E-4
306.0 1.859528E-4
307.0 1.826603E-4
308.0 1.790496E-4
309.0 1.756359E-4
310.0 1.717099E-4
311.0 1.681043E-4
312.0 1.642534E-4
313.0 1.607413E-4
314.0 1.568777E-4
315.0 1.533793E-4
316.0 1.495373E-4
317.0 1.460541E-4
318.0 1.423227E-4
319.0 1.388744E-4
320.0 1.352528E-4
321.0 1.3187E-4
322.0 1.283835E-4
323.0 1.250489E-4
324.0 1.218035E-4
325.0 1.185524E-4
326.0 1.154785E-4
327.0 1.123689E-4
328.0 1.095301E-4
329.0 1.065912E-4
330.0 1.039835E-4
331.0 1.012296E-4
332.0 9.889193E-5
333.0 9.629774E-5
334.0 9.405807E-5
335.0 9.166995E-5
336.0 8.96697E-5
337.0 8.74997E-5
338.0 8.572766E-5
339.0 8.373283E-5
340.0 8.212197E-5
341.0 8.03323E-5
342.0 7.890761E-5
343.0 7.727073E-5
344.0 7.598136E-5
345.0 7.451454E-5
346.0 7.338617E-5
347.0 7.207046E-5
348.0 7.107623E-5
349.0 6.989241E-5
350.0 6.902538E-5
351.0 6.795756E-5
352.0 6.719535E-5
353.0 6.62396E-5
354.0 6.560714E-5
355.0 6.475653E-5
356.0 6.420195E-5
357.0 6.345054E-5
358.0 6.298515E-5
359.0 6.229497E-5
360.0 6.188194E-5
361.0 6.128688E-5
362.0 6.095688E-5
363.0 6.040209E-5
364.0 6.049011E-5
365.0 5.979787E-5
366.0 5.967265E-5
367.0 5.915408E-5
368.0 5.902741E-5
369.0 5.856212E-5
370.0 5.846438E-5
371.0 5.799641E-5
372.0 5.7873E-5
373.0 5.745266E-5
374.0 5.734263E-5
375.0 5.695057E-5
376.0 5.679194E-5
377.0 5.648468E-5
378.0 5.634973E-5
379.0 5.60905E-5
380.0 5.589583E-5
381.0 5.56752E-5
382.0 5.544567E-5
383.0 5.520223E-5
384.0 5.494366E-5
385.0 5.476578E-5
386.0 5.453317E-5
387.0 5.426576E-5
388.0 5.409574E-5
389.0 5.377681E-5
390.0 5.353062E-5
391.0 5.334695E-5
392.0 5.309081E-5
393.0 5.289013E-5
394.0 5.265662E-5
395.0 5.235531E-5
396.0 5.21561E-5
397.0 5.186143E-5
398.0 5.16873E-5
399.0 5.137205E-5
400.0 5.119949E-5
401.0 5.073394E-5
402.0 5.041922E-5
403.0 5.008758E-5
404.0 4.988954E-5
405.0 4.953479E-5
406.0 4.941989E-5
407.0 4.903121E-5
408.0 4.891483E-5
409.0 4.849891E-5
410.0 4.836668E-5
411.0 4.793999E-5
412.0 4.777478E-5
413.0 4.733232E-5
414.0 4.717441E-5
415.0 4.675853E-5
416.0 4.663652E-5
417.0 4.621532E-5
418.0 4.609234E-5
419.0 4.568665E-5
420.0 4.558829E-5
421.0 4.516474E-5
422.0 4.50543E-5
423.0 4.463206E-5
424.0 4.454105E-5
425.0 4.410228E-5
426.0 4.400849E-5
427.0 4.358365E-5
428.0 4.352364E-5
429.0 4.309146E-5
430.0 4.301976E-5
431.0 4.261903E-5
432.0 4.258329E-5
433.0 4.216775E-5
434.0 4.212188E-5
435.0 4.172237E-5
436.0 4.169811E-5
437.0 4.128318E-5
438.0 4.124843E-5
439.0 4.085372E-5
440.0 4.084535E-5
441.0 4.044855E-5
442.0 4.042927E-5
443.0 4.008118E-5
444.0 4.005643E-5
445.0 3.97009E-5
446.0 3.966154E-5
447.0 3.933847E-5
448.0 3.932123E-5
449.0 3.899435E-5
450.0 3.892215E-5
451.0 3.865066E-5
452.0 3.857165E-5
453.0 3.834097E-5
454.0 3.816871E-5
455.0 3.807612E-5
456.0 3.780145E-5
457.0 3.774792E-5
458.0 3.741043E-5
459.0 3.747489E-5
460.0 3.711244E-5
461.0 3.722845E-5
462.0 3.682509E-5
463.0 3.696692E-5
464.0 3.652814E-5
465.0 3.66904E-5
466.0 3.626854E-5
467.0 3.640942E-5
468.0 3.604733E-5
469.0 3.613326E-5
470.0 3.583898E-5
471.0 3.57521E-5
472.0 3.560515E-5
473.0 3.549159E-5
474.0 3.539716E-5
475.0 3.522431E-5
476.0 3.515445E-5
477.0 3.491836E-5
478.0 3.493239E-5
479.0 3.465585E-5
480.0 3.472708E-5
481.0 3.440486E-5
482.0 3.455699E-5
483.0 3.415903E-5
484.0 3.439283E-5
485.0 3.395516E-5
486.0 3.406765E-5
487.0 3.367353E-5
488.0 3.384412E-5
489.0 3.344056E-5
490.0 3.359747E-5
491.0 3.321214E-5
492.0 3.338443E-5
493.0 3.298631E-5
494.0 3.314097E-5
495.0 3.275433E-5
496.0 3.292018E-5
497.0 3.252209E-5
498.0 3.26725E-5
499.0 3.237071E-5
500.0 3.249101E-5
501.0 3.211353E-5
502.0 3.22712E-5
503.0 3.189202E-5
504.0 3.200704E-5
505.0 3.159467E-5
506.0 3.174887E-5
507.0 3.136791E-5
508.0 3.153846E-5
509.0 3.114698E-5
510.0 3.130164E-5
511.0 3.09524E-5
512.0 3.107695E-5
513.0 3.067996E-5
514.0 3.083609E-5
515.0 3.051027E-5
516.0 3.063557E-5
517.0 3.028639E-5
518.0 3.039128E-5
519.0 3.006653E-5
520.0 3.018356E-5
521.0 2.985499E-5
522.0 2.994466E-5
523.0 2.96317E-5
524.0 2.97176E-5
525.0 2.940783E-5
526.0 2.94963E-5
527.0 2.920696E-5
528.0 2.927463E-5
529.0 2.901369E-5
530.0 2.901534E-5
531.0 2.881121E-5
532.0 2.878111E-5
533.0 2.867425E-5
534.0 2.845645E-5
535.0 2.845418E-5
536.0 2.816643E-5
537.0 2.82456E-5
538.0 2.789556E-5
539.0 2.808292E-5
540.0 2.771535E-5
541.0 2.791006E-5
542.0 2.749301E-5
543.0 2.772279E-5
544.0 2.73033E-5
545.0 2.754724E-5
546.0 2.718128E-5
547.0 2.73773E-5
548.0 2.706614E-5
549.0 2.703725E-5
550.0 2.686095E-5
551.0 2.676789E-5
552.0 2.664553E-5
553.0 2.652079E-5
554.0 2.650282E-5
555.0 2.632312E-5
556.0 2.638835E-5
557.0 2.616034E-5
558.0 2.626708E-5
559.0 2.597727E-5
560.0 2.615425E-5
561.0 2.577195E-5
562.0 2.600789E-5
563.0 2.559325E-5
564.0 2.575929E-5
565.0 2.538214E-5
566.0 2.55923E-5
567.0 2.520811E-5
568.0 2.540906E-5
569.0 2.503976E-5
570.0 2.525131E-5
571.0 2.487046E-5
572.0 2.506323E-5
573.0 2.46884E-5
574.0 2.488494E-5
575.0 2.450211E-5
576.0 2.468772E-5
577.0 2.469225E-5
578.0 2.470718E-5
579.0 2.441896E-5
580.0 2.455989E-5
581.0 2.425491E-5
582.0 2.441418E-5
583.0 2.410057E-5
584.0 2.424379E-5
585.0 2.392864E-5
586.0 2.407849E-5
587.0 2.375243E-5
588.0 2.389115E-5
589.0 2.360112E-5
590.0 2.375871E-5
591.0 2.339079E-5
592.0 2.355215E-5
593.0 2.326682E-5
594.0 2.337241E-5
595.0 2.303964E-5
596.0 2.318808E-5
597.0 2.293251E-5
598.0 2.311147E-5
599.0 2.281177E-5
600.0 2.291565E-5
601.0 2.262855E-5
602.0 2.272339E-5
603.0 2.245321E-5
604.0 2.252526E-5
605.0 2.227359E-5
606.0 2.235979E-5
607.0 2.211912E-5
608.0 2.218839E-5
609.0 2.197386E-5
610.0 2.20408E-5
611.0 2.184712E-5
612.0 2.184734E-5
613.0 2.171872E-5
614.0 2.16882E-5
615.0 2.164613E-5
616.0 2.143028E-5
617.0 2.14887E-5
618.0 2.12005E-5
619.0 2.134509E-5
620.0 2.099913E-5
621.0 2.125669E-5
622.0 2.089006E-5
623.0 2.114974E-5
624.0 2.073383E-5
625.0 2.102459E-5
626.0 2.046263E-5
627.0 2.063509E-5
628.0 2.022811E-5
629.0 2.043751E-5
630.0 2.013984E-5
631.0 2.015945E-5
632.0 2.003322E-5
633.0 1.997224E-5
634.0 1.989551E-5
635.0 1.982131E-5
636.0 1.983679E-5
637.0 1.969221E-5
638.0 1.978155E-5
639.0 1.95706E-5
640.0 1.96898E-5
641.0 1.94295E-5
642.0 1.963542E-5
643.0 1.932974E-5
644.0 1.955732E-5
645.0 1.917105E-5
646.0 1.9382E-5
647.0 1.906046E-5
648.0 1.930047E-5
649.0 1.894897E-5
650.0 1.917978E-5
651.0 1.884384E-5
652.0 1.907365E-5
653.0 1.871948E-5
654.0 1.894242E-5
655.0 1.860418E-5
656.0 1.882311E-5
657.0 1.850133E-5
658.0 1.868333E-5
659.0 1.834217E-5
660.0 1.856618E-5
661.0 1.826039E-5
662.0 1.844792E-5
663.0 1.814324E-5
664.0 1.832683E-5
665.0 1.801315E-5
666.0 1.820669E-5
667.0 1.790957E-5
668.0 1.809496E-5
669.0 1.778003E-5
670.0 1.79655E-5
671.0 1.767396E-5
672.0 1.785753E-5
673.0 1.754674E-5
674.0 1.773478E-5
675.0 1.744919E-5
676.0 1.763574E-5
677.0 1.73253E-5
678.0 1.751141E-5
679.0 1.722993E-5
680.0 1.74145E-5
681.0 1.71041E-5
682.0 1.728715E-5
683.0 1.701175E-5
684.0 1.720877E-5
685.0 1.690022E-5
686.0 1.707906E-5
687.0 1.715166E-5
688.0 1.716314E-5
689.0 1.693325E-5
690.0 1.707319E-5
691.0 1.686153E-5
692.0 1.698906E-5
693.0 1.674054E-5
694.0 1.686151E-5
695.0 1.666516E-5
696.0 1.676553E-5
697.0 1.653983E-5
698.0 1.66034E-5
699.0 1.647641E-5
700.0 1.648381E-5
701.0 1.637864E-5
702.0 1.629093E-5
703.0 1.635146E-5
704.0 1.616906E-5
705.0 1.621607E-5
706.0 1.597762E-5
707.0 1.620891E-5
708.0 1.588173E-5
709.0 1.610383E-5
710.0 1.577602E-5
711.0 1.608891E-5
712.0 1.569557E-5
713.0 1.59671E-5
714.0 1.560786E-5
715.0 1.594168E-5
716.0 1.560176E-5
717.0 1.581074E-5
718.0 1.554849E-5
719.0 1.564591E-5
720.0 1.549065E-5
721.0 1.545533E-5
722.0 1.539627E-5
723.0 1.551086E-5
724.0 1.543765E-5
725.0 1.532414E-5
726.0 1.542221E-5
727.0 1.533356E-5
728.0 1.541961E-5
729.0 1.51738E-5
730.0 1.523887E-5
731.0 1.491417E-5
732.0 1.507743E-5
733.0 1.467894E-5
734.0 1.4898E-5
735.0 1.469897E-5
736.0 1.481255E-5
737.0 1.442077E-5
738.0 1.468324E-5
739.0 1.448518E-5
740.0 1.466372E-5
741.0 1.429294E-5
742.0 1.454999E-5
743.0 1.434531E-5
744.0 1.450061E-5
745.0 1.412126E-5
746.0 1.437053E-5
747.0 1.417302E-5
748.0 1.432837E-5
749.0 1.395924E-5
750.0 1.421628E-5
751.0 1.403262E-5
752.0 1.418903E-5
753.0 1.382252E-5
754.0 1.407633E-5
755.0 1.389386E-5
756.0 1.404246E-5
757.0 1.367213E-5
758.0 1.392091E-5
759.0 1.374085E-5
760.0 1.388761E-5
761.0 1.352022E-5
762.0 1.377075E-5
763.0 1.359783E-5
764.0 1.374565E-5
765.0 1.338136E-5
766.0 1.36312E-5
767.0 1.346169E-5
768.0 1.360674E-5
769.0 1.324228E-5
770.0 1.348912E-5
771.0 1.332218E-5
772.0 1.346531E-5
773.0 1.31029E-5
774.0 1.334956E-5
775.0 1.31874E-5
776.0 1.332655E-5
777.0 1.297018E-5
778.0 1.320719E-5
779.0 1.305647E-5
780.0 1.31842E-5
781.0 1.283951E-5
782.0 1.306086E-5
783.0 1.292632E-5
784.0 1.303743E-5
785.0 1.277921E-5
786.0 1.292273E-5
787.0 1.281516E-5
788.0 1.288588E-5
789.0 1.261463E-5
790.0 1.274586E-5
791.0 1.267117E-5
792.0 1.267206E-5
793.0 1.248855E-5
794.0 1.250103E-5
795.0 1.262256E-5
796.0 1.244662E-5
797.0 1.242324E-5
798.0 1.224191E-5
799.0 1.251027E-5
800.0 1.220384E-5
801.0 1.237127E-5
802.0 1.210776E-5
803.0 1.246197E-5
804.0 1.207846E-5
805.0 1.227831E-5
806.0 1.197208E-5
807.0 1.23971E-5
808.0 1.204938E-5
809.0 1.220927E-5
810.0 1.200167E-5
811.0 1.214774E-5
812.0 1.201131E-5
813.0 1.19181E-5
814.0 1.189868E-5
815.0 1.19753E-5
816.0 1.1953E-5
817.0 1.177965E-5
818.0 1.191453E-5
819.0 1.186717E-5
820.0 1.195454E-5
821.0 1.168325E-5
822.0 1.194376E-5
823.0 1.179585E-5
824.0 1.199007E-5
825.0 1.159928E-5
826.0 1.184193E-5
827.0 1.169281E-5
828.0 1.185393E-5
829.0 1.149308E-5
830.0 1.176709E-5
831.0 1.161686E-5
832.0 1.177853E-5
833.0 1.141693E-5
834.0 1.168492E-5
835.0 1.153063E-5
836.0 1.168023E-5
837.0 1.13173E-5
838.0 1.157785E-5
839.0 1.142589E-5
840.0 1.157274E-5
841.0 1.121438E-5
842.0 1.147486E-5
843.0 1.132956E-5
844.0 1.147614E-5
845.0 1.112162E-5
846.0 1.138031E-5
847.0 1.123751E-5
848.0 1.138038E-5
849.0 1.102609E-5
850.0 1.128114E-5
851.0 1.113985E-5
852.0 1.127995E-5
853.0 1.092721E-5
854.0 1.118133E-5
855.0 1.10436E-5
856.0 1.118294E-5
857.0 1.083305E-5
858.0 1.108657E-5
859.0 1.095218E-5
860.0 1.108948E-5
861.0 1.074118E-5
862.0 1.099264E-5
863.0 1.086088E-5
864.0 1.099557E-5
865.0 1.064951E-5
866.0 1.089953E-5
867.0 1.077089E-5
868.0 1.09036E-5
869.0 1.056058E-5
870.0 1.080965E-5
871.0 1.068431E-5
872.0 1.081527E-5
873.0 1.047498E-5
874.0 1.072324E-5
875.0 1.060041E-5
876.0 1.072421E-5
877.0 1.038913E-5
878.0 1.062646E-5
879.0 1.051416E-5
880.0 1.10229E-5
881.0 1.058971E-5
882.0 1.0836E-5
883.0 1.075319E-5
884.0 1.085715E-5
885.0 1.055999E-5
886.0 1.076687E-5
887.0 1.067465E-5
888.0 1.073671E-5
889.0 1.045661E-5
890.0 1.058837E-5
891.0 1.057742E-5
892.0 1.053399E-5
893.0 1.040028E-5
894.0 1.03791E-5
895.0 1.055437E-5
896.0 1.033969E-5
897.0 1.035975E-5
898.0 1.02108E-5
899.0 1.055836E-5
900.0 1.023294E-5
901.0 1.037135E-5
902.0 1.010818E-5
903.0 1.055641E-5
904.0 1.015786E-5
905.0 1.038301E-5
906.0 1.009514E-5
907.0 1.051384E-5
908.0 1.016643E-5
909.0 1.030097E-5
910.0 1.013162E-5
911.0 1.030117E-5
912.0 1.015066E-5
913.0 1.006271E-5
914.0 1.006451E-5
915.0 1.016255E-5
916.0 1.013544E-5
917.0 9.961326E-6
918.0 1.010337E-5
919.0 1.008944E-5
920.0 1.01298E-5
921.0 9.85019E-6
922.0 1.011937E-5
923.0 1.000702E-5
924.0 1.019228E-5
925.0 9.803434E-6
926.0 1.006008E-5
927.0 9.943236E-6
928.0 1.009246E-5
929.0 9.733208E-6
930.0 1.001842E-5
931.0 9.895337E-6
932.0 1.004562E-5
933.0 9.683454E-6
934.0 9.962182E-6
935.0 9.83614E-6
936.0 9.978889E-6
937.0 9.615329E-6
938.0 9.888334E-6
939.0 9.764129E-6
940.0 9.904749E-6
941.0 9.544775E-6
942.0 9.81732E-6
943.0 9.69768E-6
944.0 9.837839E-6
945.0 9.48063E-6
946.0 9.751547E-6
947.0 9.633722E-6
948.0 9.771015E-6
949.0 9.41434E-6
950.0 9.682463E-6
951.0 9.565903E-6
952.0 9.701214E-6
953.0 9.345838E-6
954.0 9.61295E-6
955.0 9.498833E-6
956.0 9.633218E-6
957.0 9.279671E-6
958.0 9.545793E-6
959.0 9.434037E-6
960.0 9.566512E-6
961.0 9.214297E-6
962.0 9.478526E-6
963.0 9.36902E-6
964.0 9.499254E-6
965.0 9.148977E-6
966.0 9.411212E-6
967.0 9.304847E-6
968.0 9.43325E-6
969.0 9.085671E-6
970.0 9.346167E-6
971.0 9.243171E-6
972.0 9.369589E-6
973.0 9.024541E-6
974.0 9.282961E-6
975.0 9.182865E-6
976.0 9.30704E-6
977.0 8.9642E-6
978.0 9.220389E-6
979.0 8.971715E-6
980.0 8.987236E-6
981.0 8.605669E-6
982.0 8.840612E-6
983.0 8.752403E-6
984.0 8.874292E-6
985.0 8.551232E-6
986.0 8.78978E-6
987.0 8.698199E-6
988.0 8.80308E-6
989.0 8.476883E-6
990.0 8.695887E-6
991.0 8.613623E-6
992.0 8.708305E-6
993.0 8.41576E-6
994.0 8.611461E-6
995.0 8.551337E-6
996.0 8.633673E-6
997.0 8.36624E-6
998.0 8.545066E-6
999.0 8.501747E-6
1000.0 8.536849E-6
