1.0 1.0
2.0 0.01155157
3.0 0.006176192
4.0 0.003864261
5.0 0.002831392
6.0 0.002390765
7.0 0.00224922
8.0 0.002230163
9.0 0.002207372
10.0 0.002178464
11.0 0.002147745
12.0 0.002121925
13.0 0.002109088
14.0 0.002104585
15.0 0.002105541
16.0 0.002115426
17.0 0.002139128
18.0 0.002181621
19.0 0.002236517
20.0 0.002290453
21.0 0.002336736
22.0 0.002369254
23.0 0.002386153
24.0 0.002386759
25.0 0.002374241
26.0 0.002351465
27.0 0.00232346
28.0 0.002289767
29.0 0.002254336
30.0 0.002219599
31.0 0.002185345
32.0 0.002151448
33.0 0.002117158
34.0 0.002082174
35.0 0.00204669
36.0 0.002009869
37.0 0.00198333
38.0 0.001929045
39.0 0.001880119
40.0 0.001837514
41.0 0.001799755
42.0 0.001765444
43.0 0.001734564
44.0 0.001705526
45.0 0.001679982
46.0 0.001655564
47.0 0.001633689
48.0 0.001612218
49.0 0.001593122
50.0 0.001574619
51.0 0.001558677
52.0 0.001543215
53.0 0.001529663
54.0 0.001516846
55.0 0.001505175
56.0 0.001492741
57.0 0.001482174
58.0 0.001471398
59.0 0.001460444
60.0 0.00144919
61.0 0.001439023
62.0 0.001428225
63.0 0.001417678
64.0 0.001407106
65.0 0.001397664
66.0 0.001387743
67.0 0.001378118
68.0 0.001367972
69.0 0.001358244
70.0 0.001348026
71.0 0.001337393
72.0 0.001326271
73.0 0.00131592
74.0 0.001305075
75.0 0.001293602
76.0 0.001281043
77.0 0.00126943
78.0 0.001257233
79.0 0.001244581
80.0 0.001231861
81.0 0.00121968
82.0 0.001207579
83.0 0.001194939
84.0 0.001181731
85.0 0.001169047
86.0 0.001157081
87.0 0.001144552
88.0 0.001132271
89.0 0.001119841
90.0 0.00110795
91.0 0.001095258
92.0 0.001082852
93.0 0.001070632
94.0 0.0010592
95.0 0.001046684
96.0 0.001034658
97.0 0.001022887
98.0 0.001011862
99.0 9.999941E-4
100.0 9.888505E-4
101.0 9.778698E-4
102.0 9.680348E-4
103.0 9.567894E-4
104.0 9.461329E-4
105.0 9.355324E-4
106.0 9.258634E-4
107.0 9.153417E-4
108.0 9.05563E-4
109.0 8.956982E-4
110.0 8.866363E-4
111.0 8.768436E-4
112.0 8.676474E-4
113.0 8.582438E-4
114.0 8.499505E-4
115.0 8.409258E-4
116.0 8.325802E-4
117.0 8.243179E-4
118.0 8.170195E-4
119.0 8.08983E-4
120.0 8.017223E-4
121.0 7.945715E-4
122.0 7.882872E-4
123.0 7.815761E-4
124.0 7.757757E-4
125.0 7.696138E-4
126.0 7.644999E-4
127.0 7.585076E-4
128.0 7.533572E-4
129.0 7.480699E-4
130.0 7.442568E-4
131.0 7.391512E-4
132.0 7.350177E-4
133.0 7.303451E-4
134.0 7.268104E-4
135.0 7.219554E-4
136.0 7.181864E-4
137.0 7.136954E-4
138.0 7.107221E-4
139.0 7.060524E-4
140.0 7.026349E-4
141.0 6.986573E-4
142.0 6.958494E-4
143.0 6.918484E-4
144.0 6.890469E-4
145.0 6.853228E-4
146.0 6.829151E-4
147.0 6.793249E-4
148.0 6.766332E-4
149.0 6.732916E-4
150.0 6.710997E-4
151.0 6.675235E-4
152.0 6.649352E-4
153.0 6.616049E-4
154.0 6.595545E-4
155.0 6.560957E-4
156.0 6.534071E-4
157.0 6.506705E-4
158.0 6.485843E-4
159.0 6.457352E-4
160.0 6.433946E-4
161.0 6.410406E-4
162.0 6.393248E-4
163.0 6.368098E-4
164.0 6.344502E-4
165.0 6.324353E-4
166.0 6.303892E-4
167.0 6.283485E-4
168.0 6.264478E-4
169.0 6.244959E-4
170.0 6.226178E-4
171.0 6.209989E-4
172.0 6.204046E-4
173.0 6.1829E-4
174.0 6.171252E-4
175.0 6.161864E-4
176.0 6.154315E-4
177.0 6.146314E-4
178.0 6.140004E-4
179.0 6.131656E-4
180.0 6.127053E-4
181.0 6.119891E-4
182.0 6.116402E-4
183.0 6.108758E-4
184.0 6.107861E-4
185.0 6.104149E-4
186.0 6.10403E-4
187.0 6.099275E-4
188.0 6.104176E-4
189.0 6.10643E-4
190.0 6.10846E-4
191.0 6.106649E-4
192.0 6.113665E-4
193.0 6.115904E-4
194.0 6.122211E-4
195.0 6.12398E-4
196.0 6.133538E-4
197.0 6.139817E-4
198.0 6.147221E-4
199.0 6.150314E-4
200.0 6.164892E-4
201.0 6.178869E-4
202.0 6.189367E-4
203.0 6.196451E-4
204.0 6.214809E-4
205.0 6.225272E-4
206.0 6.245422E-4
207.0 6.259161E-4
208.0 6.280734E-4
209.0 6.2961E-4
210.0 6.320016E-4
211.0 6.33918E-4
212.0 6.365287E-4
213.0 6.387102E-4
214.0 6.414597E-4
215.0 6.437205E-4
216.0 6.469302E-4
217.0 6.496607E-4
218.0 6.529816E-4
219.0 6.557726E-4
220.0 6.594394E-4
221.0 6.625848E-4
222.0 6.662887E-4
223.0 6.695864E-4
224.0 6.734175E-4
225.0 6.767691E-4
226.0 6.804778E-4
227.0 6.838193E-4
228.0 6.871737E-4
229.0 6.903202E-4
230.0 6.929791E-4
231.0 6.954343E-4
232.0 6.972241E-4
233.0 6.987576E-4
234.0 6.992302E-4
235.0 6.993658E-4
236.0 6.982123E-4
237.0 6.965899E-4
238.0 6.935533E-4
239.0 6.8994E-4
240.0 6.846439E-4
241.0 6.789271E-4
242.0 6.71297E-4
243.0 6.628746E-4
244.0 6.531744E-4
245.0 6.424704E-4
246.0 6.306077E-4
247.0 6.176373E-4
248.0 6.037321E-4
249.0 5.888238E-4
250.0 5.732294E-4
251.0 5.567307E-4
252.0 5.398804E-4
253.0 5.223042E-4
254.0 5.0475E-4
255.0 4.865467E-4
256.0 4.686992E-4
257.0 4.50447E-4
258.0 4.327386E-4
259.0 4.149943E-4
260.0 3.979641E-4
261.0 3.810951E-4
262.0 3.64941E-4
263.0 3.491442E-4
264.0 3.342711E-4
265.0 3.197611E-4
266.0 3.062035E-4
267.0 2.930696E-4
268.0 2.807889E-4
269.0 2.690702E-4
270.0 2.582687E-4
271.0 2.479764E-4
272.0 2.384987E-4
273.0 2.295223E-4
274.0 2.212888E-4
275.0 2.135006E-4
276.0 2.064647E-4
277.0 1.998015E-4
278.0 1.937304E-4
279.0 1.880338E-4
280.0 1.82873E-4
281.0 1.779217E-4
282.0 1.734407E-4
283.0 1.692193E-4
284.0 1.654592E-4
285.0 1.617809E-4
286.0 1.584927E-4
287.0 1.552941E-4
288.0 1.52448E-4
289.0 1.496027E-4
290.0 1.470965E-4
291.0 1.44571E-4
292.0 1.423646E-4
293.0 1.401809E-4
294.0 1.380523E-4
295.0 1.35968E-4
296.0 1.340093E-4
297.0 1.319125E-4
298.0 1.299373E-4
299.0 1.27853E-4
300.0 1.258825E-4
301.0 1.237322E-4
302.0 1.216879E-4
303.0 1.195466E-4
304.0 1.17506E-4
305.0 1.153123E-4
306.0 1.13189E-4
307.0 1.110387E-4
308.0 1.089074E-4
309.0 1.068184E-4
310.0 1.046579E-4
311.0 1.025447E-4
312.0 1.004029E-4
313.0 9.841239E-5
314.0 9.628036E-5
315.0 9.44398E-5
316.0 9.237566E-5
317.0 9.063247E-5
318.0 8.866265E-5
319.0 8.704466E-5
320.0 8.518526E-5
321.0 8.358532E-5
322.0 8.192168E-5
323.0 8.038309E-5
324.0 7.897971E-5
325.0 7.750917E-5
326.0 7.626655E-5
327.0 7.487269E-5
328.0 7.393475E-5
329.0 7.266808E-5
330.0 7.199699E-5
331.0 7.079853E-5
332.0 7.043794E-5
333.0 6.925015E-5
334.0 6.895149E-5
335.0 6.78999E-5
336.0 6.771331E-5
337.0 6.680573E-5
338.0 6.679184E-5
339.0 6.593196E-5
340.0 6.597846E-5
341.0 6.521776E-5
342.0 6.538648E-5
343.0 6.468041E-5
344.0 6.490632E-5
345.0 6.429899E-5
346.0 6.462119E-5
347.0 6.403651E-5
348.0 6.437671E-5
349.0 6.387161E-5
350.0 6.429041E-5
351.0 6.380987E-5
352.0 6.424852E-5
353.0 6.383344E-5
354.0 6.432619E-5
355.0 6.391187E-5
356.0 6.439621E-5
357.0 6.403694E-5
358.0 6.457076E-5
359.0 6.422222E-5
360.0 6.47387E-5
361.0 6.44325E-5
362.0 6.501219E-5
363.0 6.467331E-5
364.0 6.5305E-5
365.0 6.49457E-5
366.0 6.551482E-5
367.0 6.518331E-5
368.0 6.569778E-5
369.0 6.540046E-5
370.0 6.593942E-5
371.0 6.560339E-5
372.0 6.606802E-5
373.0 6.574859E-5
374.0 6.622651E-5
375.0 6.588125E-5
376.0 6.616506E-5
377.0 6.592823E-5
378.0 6.623551E-5
379.0 6.602587E-5
380.0 6.606209E-5
381.0 6.599827E-5
382.0 6.594199E-5
383.0 6.589616E-5
384.0 6.571542E-5
385.0 6.569607E-5
386.0 6.544367E-5
387.0 6.545443E-5
388.0 6.520962E-5
389.0 6.516855E-5
390.0 6.480098E-5
391.0 6.478715E-5
392.0 6.440362E-5
393.0 6.437253E-5
394.0 6.39848E-5
395.0 6.376144E-5
396.0 6.344904E-5
397.0 6.318612E-5
398.0 6.297326E-5
399.0 6.261462E-5
400.0 6.241949E-5
401.0 6.196068E-5
402.0 6.175652E-5
403.0 6.127212E-5
404.0 6.117159E-5
405.0 6.059988E-5
406.0 6.06441E-5
407.0 5.996896E-5
408.0 6.002729E-5
409.0 5.928601E-5
410.0 5.924925E-5
411.0 5.857075E-5
412.0 5.859998E-5
413.0 5.786587E-5
414.0 5.785182E-5
415.0 5.713317E-5
416.0 5.714374E-5
417.0 5.639514E-5
418.0 5.638103E-5
419.0 5.566149E-5
420.0 5.568176E-5
421.0 5.494936E-5
422.0 5.495172E-5
423.0 5.42499E-5
424.0 5.428252E-5
425.0 5.356411E-5
426.0 5.357223E-5
427.0 5.288085E-5
428.0 5.291825E-5
429.0 5.221019E-5
430.0 5.222214E-5
431.0 5.154676E-5
432.0 5.159268E-5
433.0 5.090515E-5
434.0 5.092955E-5
435.0 5.027756E-5
436.0 5.033189E-5
437.0 4.967202E-5
438.0 4.970168E-5
439.0 4.907761E-5
440.0 4.913588E-5
441.0 4.849876E-5
442.0 4.852744E-5
443.0 4.796092E-5
444.0 4.798254E-5
445.0 4.739289E-5
446.0 4.739035E-5
447.0 4.685191E-5
448.0 4.689147E-5
449.0 4.634634E-5
450.0 4.632481E-5
451.0 4.583681E-5
452.0 4.58139E-5
453.0 4.53551E-5
454.0 4.527455E-5
455.0 4.497631E-5
456.0 4.479967E-5
457.0 4.450758E-5
458.0 4.421426E-5
459.0 4.409339E-5
460.0 4.377037E-5
461.0 4.367999E-5
462.0 4.333524E-5
463.0 4.331591E-5
464.0 4.290357E-5
465.0 4.294665E-5
466.0 4.254099E-5
467.0 4.259391E-5
468.0 4.219498E-5
469.0 4.228606E-5
470.0 4.190631E-5
471.0 4.180791E-5
472.0 4.152153E-5
473.0 4.137742E-5
474.0 4.120803E-5
475.0 4.101567E-5
476.0 4.089504E-5
477.0 4.063466E-5
478.0 4.063148E-5
479.0 4.034002E-5
480.0 4.040335E-5
481.0 4.003404E-5
482.0 4.020695E-5
483.0 3.973402E-5
484.0 3.996135E-5
485.0 3.944249E-5
486.0 3.959192E-5
487.0 3.912802E-5
488.0 3.931675E-5
489.0 3.881056E-5
490.0 3.897357E-5
491.0 3.849188E-5
492.0 3.86808E-5
493.0 3.818124E-5
494.0 3.835104E-5
495.0 3.78741E-5
496.0 3.806431E-5
497.0 3.757232E-5
498.0 3.774229E-5
499.0 3.731182E-5
500.0 3.745519E-5
501.0 3.698669E-5
502.0 3.712929E-5
503.0 3.668064E-5
504.0 3.684917E-5
505.0 3.635465E-5
506.0 3.651973E-5
507.0 3.605763E-5
508.0 3.624387E-5
509.0 3.576459E-5
510.0 3.59286E-5
511.0 3.54921E-5
512.0 3.564441E-5
513.0 3.515893E-5
514.0 3.531272E-5
515.0 3.48886E-5
516.0 3.503295E-5
517.0 3.457772E-5
518.0 3.469291E-5
519.0 3.426984E-5
520.0 3.440765E-5
521.0 3.397145E-5
522.0 3.407786E-5
523.0 3.366791E-5
524.0 3.379565E-5
525.0 3.336311E-5
526.0 3.346008E-5
527.0 3.304864E-5
528.0 3.315467E-5
529.0 3.274224E-5
530.0 3.277227E-5
531.0 3.241969E-5
532.0 3.247995E-5
533.0 3.219773E-5
534.0 3.206892E-5
535.0 3.190832E-5
536.0 3.17243E-5
537.0 3.163988E-5
538.0 3.138757E-5
539.0 3.136193E-5
540.0 3.109983E-5
541.0 3.109924E-5
542.0 3.07529E-5
543.0 3.081181E-5
544.0 3.047978E-5
545.0 3.059191E-5
546.0 3.023219E-5
547.0 3.043837E-5
548.0 3.00493E-5
549.0 3.001963E-5
550.0 2.978949E-5
551.0 2.968841E-5
552.0 2.951849E-5
553.0 2.936657E-5
554.0 2.92679E-5
555.0 2.905743E-5
556.0 2.905118E-5
557.0 2.879628E-5
558.0 2.885281E-5
559.0 2.855521E-5
560.0 2.871904E-5
561.0 2.833299E-5
562.0 2.857905E-5
563.0 2.812049E-5
564.0 2.826895E-5
565.0 2.785669E-5
566.0 2.803918E-5
567.0 2.758915E-5
568.0 2.775517E-5
569.0 2.732607E-5
570.0 2.751386E-5
571.0 2.707051E-5
572.0 2.724683E-5
573.0 2.682239E-5
574.0 2.701434E-5
575.0 2.657894E-5
576.0 2.675729E-5
577.0 2.652638E-5
578.0 2.660366E-5
579.0 2.620926E-5
580.0 2.633338E-5
581.0 2.594235E-5
582.0 2.608148E-5
583.0 2.569894E-5
584.0 2.583115E-5
585.0 2.546647E-5
586.0 2.561828E-5
587.0 2.524804E-5
588.0 2.538896E-5
589.0 2.504055E-5
590.0 2.519024E-5
591.0 2.479651E-5
592.0 2.494009E-5
593.0 2.45819E-5
594.0 2.471777E-5
595.0 2.433161E-5
596.0 2.445955E-5
597.0 2.411606E-5
598.0 2.427433E-5
599.0 2.388407E-5
600.0 2.400914E-5
601.0 2.365403E-5
602.0 2.378104E-5
603.0 2.344313E-5
604.0 2.354696E-5
605.0 2.322481E-5
606.0 2.334031E-5
607.0 2.300208E-5
608.0 2.309015E-5
609.0 2.277118E-5
610.0 2.2878E-5
611.0 2.256067E-5
612.0 2.259347E-5
613.0 2.233259E-5
614.0 2.239168E-5
615.0 2.219495E-5
616.0 2.20857E-5
617.0 2.200117E-5
618.0 2.184015E-5
619.0 2.182888E-5
620.0 2.160564E-5
621.0 2.165191E-5
622.0 2.14135E-5
623.0 2.147778E-5
624.0 2.11633E-5
625.0 2.128008E-5
626.0 2.094943E-5
627.0 2.109602E-5
628.0 2.079615E-5
629.0 2.101925E-5
630.0 2.069402E-5
631.0 2.071484E-5
632.0 2.054024E-5
633.0 2.046403E-5
634.0 2.032855E-5
635.0 2.022604E-5
636.0 2.016269E-5
637.0 2.00129E-5
638.0 2.006886E-5
639.0 1.987595E-5
640.0 1.997013E-5
641.0 1.974179E-5
642.0 1.994216E-5
643.0 1.964937E-5
644.0 1.990555E-5
645.0 1.95028E-5
646.0 1.968227E-5
647.0 1.934531E-5
648.0 1.955229E-5
649.0 1.916935E-5
650.0 1.937036E-5
651.0 1.901603E-5
652.0 1.923122E-5
653.0 1.885721E-5
654.0 1.906955E-5
655.0 1.871793E-5
656.0 1.893257E-5
657.0 1.857237E-5
658.0 1.876777E-5
659.0 1.841095E-5
660.0 1.862141E-5
661.0 1.82666E-5
662.0 1.846262E-5
663.0 1.812229E-5
664.0 1.831793E-5
665.0 1.796336E-5
666.0 1.816339E-5
667.0 1.783271E-5
668.0 1.803353E-5
669.0 1.767993E-5
670.0 1.787682E-5
671.0 1.755138E-5
672.0 1.775027E-5
673.0 1.739767E-5
674.0 1.759463E-5
675.0 1.727171E-5
676.0 1.747651E-5
677.0 1.712221E-5
678.0 1.731927E-5
679.0 1.700134E-5
680.0 1.720754E-5
681.0 1.685315E-5
682.0 1.704831E-5
683.0 1.673597E-5
684.0 1.693598E-5
685.0 1.657992E-5
686.0 1.676337E-5
687.0 1.663734E-5
688.0 1.671192E-5
689.0 1.639561E-5
690.0 1.652614E-5
691.0 1.62597E-5
692.0 1.639234E-5
693.0 1.609788E-5
694.0 1.622429E-5
695.0 1.599011E-5
696.0 1.612748E-5
697.0 1.584758E-5
698.0 1.592969E-5
699.0 1.574067E-5
700.0 1.578369E-5
701.0 1.558919E-5
702.0 1.555862E-5
703.0 1.551383E-5
704.0 1.544968E-5
705.0 1.534799E-5
706.0 1.522224E-5
707.0 1.533265E-5
708.0 1.51413E-5
709.0 1.517721E-5
710.0 1.495688E-5
711.0 1.513265E-5
712.0 1.485247E-5
713.0 1.498965E-5
714.0 1.472123E-5
715.0 1.497177E-5
716.0 1.466689E-5
717.0 1.491179E-5
718.0 1.459428E-5
719.0 1.473313E-5
720.0 1.453296E-5
721.0 1.452841E-5
722.0 1.442033E-5
723.0 1.453249E-5
724.0 1.439323E-5
725.0 1.429937E-5
726.0 1.430652E-5
727.0 1.427215E-5
728.0 1.429929E-5
729.0 1.412738E-5
730.0 1.427869E-5
731.0 1.407327E-5
732.0 1.429486E-5
733.0 1.390519E-5
734.0 1.409191E-5
735.0 1.390123E-5
736.0 1.405475E-5
737.0 1.363733E-5
738.0 1.386122E-5
739.0 1.363512E-5
740.0 1.382988E-5
741.0 1.344078E-5
742.0 1.368766E-5
743.0 1.347331E-5
744.0 1.366873E-5
745.0 1.328E-5
746.0 1.352331E-5
747.0 1.330591E-5
748.0 1.348938E-5
749.0 1.309388E-5
750.0 1.333146E-5
751.0 1.311914E-5
752.0 1.330183E-5
753.0 1.291217E-5
754.0 1.3154E-5
755.0 1.295321E-5
756.0 1.313815E-5
757.0 1.275161E-5
758.0 1.299283E-5
759.0 1.279456E-5
760.0 1.297615E-5
761.0 1.258605E-5
762.0 1.282443E-5
763.0 1.26269E-5
764.0 1.280784E-5
765.0 1.241744E-5
766.0 1.265765E-5
767.0 1.246454E-5
768.0 1.264851E-5
769.0 1.225967E-5
770.0 1.250147E-5
771.0 1.231117E-5
772.0 1.24957E-5
773.0 1.210591E-5
774.0 1.234719E-5
775.0 1.215807E-5
776.0 1.233595E-5
777.0 1.194827E-5
778.0 1.217844E-5
779.0 1.1998E-5
780.0 1.216627E-5
781.0 1.178562E-5
782.0 1.200365E-5
783.0 1.183382E-5
784.0 1.199076E-5
785.0 1.165738E-5
786.0 1.182859E-5
787.0 1.168478E-5
788.0 1.182242E-5
789.0 1.147009E-5
790.0 1.162516E-5
791.0 1.14888E-5
792.0 1.156444E-5
793.0 1.126467E-5
794.0 1.137535E-5
795.0 1.13657E-5
796.0 1.135E-5
797.0 1.115898E-5
798.0 1.111137E-5
799.0 1.126107E-5
800.0 1.111551E-5
801.0 1.107436E-5
802.0 1.094626E-5
803.0 1.115779E-5
804.0 1.091558E-5
805.0 1.094158E-5
806.0 1.076335E-5
807.0 1.11012E-5
808.0 1.082844E-5
809.0 1.097797E-5
810.0 1.074726E-5
811.0 1.092899E-5
812.0 1.077614E-5
813.0 1.069591E-5
814.0 1.06506E-5
815.0 1.074232E-5
816.0 1.067185E-5
817.0 1.050631E-5
818.0 1.059969E-5
819.0 1.058303E-5
820.0 1.064972E-5
821.0 1.041494E-5
822.0 1.065893E-5
823.0 1.055635E-5
824.0 1.080384E-5
825.0 1.040603E-5
826.0 1.063671E-5
827.0 1.04945E-5
828.0 1.067259E-5
829.0 1.02931E-5
830.0 1.053814E-5
831.0 1.037459E-5
832.0 1.055573E-5
833.0 1.017825E-5
834.0 1.043137E-5
835.0 1.026867E-5
836.0 1.045089E-5
837.0 1.007793E-5
838.0 1.03307E-5
839.0 1.017015E-5
840.0 1.034964E-5
841.0 9.976503E-6
842.0 1.022541E-5
843.0 1.006697E-5
844.0 1.024323E-5
845.0 9.872555E-6
846.0 1.011996E-5
847.0 9.966131E-6
848.0 1.014168E-5
849.0 9.77394E-6
850.0 1.002112E-5
851.0 9.870184E-6
852.0 1.00449E-5
853.0 9.677621E-6
854.0 9.923982E-6
855.0 9.773913E-6
856.0 9.947784E-6
857.0 9.580269E-6
858.0 9.826574E-6
859.0 9.677784E-6
860.0 9.851816E-6
861.0 9.484784E-6
862.0 9.731716E-6
863.0 9.584408E-6
864.0 9.758273E-6
865.0 9.391894E-6
866.0 9.63994E-6
867.0 9.493452E-6
868.0 9.667465E-6
869.0 9.301711E-6
870.0 9.550371E-6
871.0 9.404434E-6
872.0 9.578171E-6
873.0 9.213234E-6
874.0 9.463044E-6
875.0 9.317399E-6
876.0 9.483804E-6
877.0 9.122343E-6
878.0 9.361084E-6
879.0 9.222475E-6
880.0 9.507964E-6
881.0 9.07801E-6
882.0 9.293043E-6
883.0 9.150638E-6
884.0 9.288254E-6
885.0 8.936628E-6
886.0 9.159658E-6
887.0 9.035568E-6
888.0 9.183197E-6
889.0 8.846342E-6
890.0 9.031599E-6
891.0 8.945511E-6
892.0 9.004547E-6
893.0 8.750395E-6
894.0 8.820773E-6
895.0 8.874069E-6
896.0 8.810036E-6
897.0 8.66991E-6
898.0 8.647725E-6
899.0 8.86372E-6
900.0 8.724664E-6
901.0 8.685017E-6
902.0 8.537388E-6
903.0 8.855773E-6
904.0 8.616591E-6
905.0 8.683134E-6
906.0 8.494881E-6
907.0 8.851607E-6
908.0 8.567625E-6
909.0 8.716932E-6
910.0 8.480625E-6
911.0 8.700055E-6
912.0 8.531291E-6
913.0 8.465951E-6
914.0 8.428865E-6
915.0 8.566309E-6
916.0 8.496446E-6
917.0 8.345463E-6
918.0 8.433896E-6
919.0 8.467419E-6
920.0 8.496046E-6
921.0 8.249796E-6
922.0 8.492136E-6
923.0 8.432182E-6
924.0 8.676047E-6
925.0 8.283817E-6
926.0 8.519707E-6
927.0 8.414144E-6
928.0 8.583334E-6
929.0 8.211431E-6
930.0 8.460357E-6
931.0 8.332798E-6
932.0 8.50827E-6
933.0 8.139748E-6
934.0 8.394937E-6
935.0 8.270695E-6
936.0 8.449433E-6
937.0 8.082962E-6
938.0 8.337063E-6
939.0 8.213555E-6
940.0 8.388556E-6
941.0 8.021562E-6
942.0 8.271225E-6
943.0 8.149242E-6
944.0 8.321169E-6
945.0 7.957126E-6
946.0 8.205169E-6
947.0 8.088218E-6
948.0 8.259472E-6
949.0 7.89917E-6
950.0 8.146226E-6
951.0 8.032006E-6
952.0 8.201883E-6
953.0 7.841939E-6
954.0 8.087286E-6
955.0 7.973442E-6
956.0 8.142148E-6
957.0 7.782123E-6
958.0 8.02682E-6
959.0 7.914092E-6
960.0 8.082679E-6
961.0 7.723442E-6
962.0 7.968092E-6
963.0 7.856831E-6
964.0 8.025188E-6
965.0 7.666436E-6
966.0 7.910415E-6
967.0 7.799963E-6
968.0 7.967638E-6
969.0 7.608989E-6
970.0 7.852298E-6
971.0 7.742698E-6
972.0 7.910187E-6
973.0 7.551878E-6
974.0 7.7952E-6
975.0 7.686475E-6
976.0 7.854648E-6
977.0 7.496675E-6
978.0 7.74067E-6
979.0 7.584897E-6
980.0 7.718232E-6
981.0 7.356806E-6
982.0 7.592765E-6
983.0 7.489433E-6
984.0 7.651337E-6
985.0 7.301442E-6
986.0 7.537798E-6
987.0 7.432697E-6
988.0 7.589292E-6
989.0 7.245839E-6
990.0 7.471989E-6
991.0 7.375353E-6
992.0 7.519487E-6
993.0 7.178975E-6
994.0 7.389952E-6
995.0 7.29791E-6
996.0 7.42544E-6
997.0 7.089744E-6
998.0 7.295277E-6
999.0 7.2088E-6
1000.0 7.321977E-6
